Title= "LBM Lid Driven Flow"
VARIABLES="X","Y","U","V"
ZONE T="BOX",I=152,J=151,F=POINT
0 0 0 0
0 1 0 0
0 2 0 0
0 3 0 0
0 4 0 0
0 5 0 0
0 6 0 0
0 7 0 0
0 8 0 0
0 9 0 0
0 10 0 0
0 11 0 0
0 12 0 0
0 13 0 0
0 14 0 0
0 15 0 0
0 16 0 0
0 17 0 0
0 18 0 0
0 19 0 0
0 20 0 0
0 21 0 0
0 22 0 0
0 23 0 0
0 24 0 0
0 25 0 0
0 26 0 0
0 27 0 0
0 28 0 0
0 29 0 0
0 30 0 0
0 31 0 0
0 32 0 0
0 33 0 0
0 34 0 0
0 35 0 0
0 36 0 0
0 37 0 0
0 38 0 0
0 39 0 0
0 40 0 0
0 41 0 0
0 42 0 0
0 43 0 0
0 44 0 0
0 45 0 0
0 46 0 0
0 47 0 0
0 48 0 0
0 49 0 0
0 50 0 0
0 51 0 0
0 52 0 0
0 53 0 0
0 54 0 0
0 55 0 0
0 56 0 0
0 57 0 0
0 58 0 0
0 59 0 0
0 60 0 0
0 61 0 0
0 62 0 0
0 63 0 0
0 64 0 0
0 65 0 0
0 66 0 0
0 67 0 0
0 68 0 0
0 69 0 0
0 70 0 0
0 71 0 0
0 72 0 0
0 73 0 0
0 74 0 0
0 75 0 0
0 76 0 0
0 77 0 0
0 78 0 0
0 79 0 0
0 80 0 0
0 81 0 0
0 82 0 0
0 83 0 0
0 84 0 0
0 85 0 0
0 86 0 0
0 87 0 0
0 88 0 0
0 89 0 0
0 90 0 0
0 91 0 0
0 92 0 0
0 93 0 0
0 94 0 0
0 95 0 0
0 96 0 0
0 97 0 0
0 98 0 0
0 99 0 0
0 100 0 0
0 101 0 0
0 102 0 0
0 103 0 0
0 104 0 0
0 105 0 0
0 106 0 0
0 107 0 0
0 108 0 0
0 109 0 0
0 110 0 0
0 111 0 0
0 112 0 0
0 113 0 0
0 114 0 0
0 115 0 0
0 116 0 0
0 117 0 0
0 118 0 0
0 119 0 0
0 120 0 0
0 121 0 0
0 122 0 0
0 123 0 0
0 124 0 0
0 125 0 0
0 126 0 0
0 127 0 0
0 128 0 0
0 129 0 0
0 130 0 0
0 131 0 0
0 132 0 0
0 133 0 0
0 134 0 0
0 135 0 0
0 136 0 0
0 137 0 0
0 138 0 0
0 139 0 0
0 140 0 0
0 141 0 0
0 142 0 0
0 143 0 0
0 144 0 0
0 145 0 0
0 146 0 0
0 147 0 0
0 148 0 0
0 149 0 0
0 150 0.1 0
1 0 0 0
1 1 -2.67279e-005 -2.84303e-005
1 2 -3.55229e-005 -4.63492e-005
1 3 -3.8855e-005 -5.68919e-005
1 4 -4.04566e-005 -6.39567e-005
1 5 -4.14537e-005 -6.89662e-005
1 6 -4.21987e-005 -7.24841e-005
1 7 -4.27975e-005 -7.47904e-005
1 8 -4.32805e-005 -7.60745e-005
1 9 -4.3659e-005 -7.64953e-005
1 10 -4.39421e-005 -7.61952e-005
1 11 -4.41413e-005 -7.52994e-005
1 12 -4.42704e-005 -7.39128e-005
1 13 -4.43441e-005 -7.21176e-005
1 14 -4.43764e-005 -6.99738e-005
1 15 -4.43796e-005 -6.75208e-005
1 16 -4.43638e-005 -6.47809e-005
1 17 -4.43365e-005 -6.17633e-005
1 18 -4.43031e-005 -5.84678e-005
1 19 -4.42669e-005 -5.48883e-005
1 20 -4.42295e-005 -5.10154e-005
1 21 -4.41914e-005 -4.6839e-005
1 22 -4.41526e-005 -4.23494e-005
1 23 -4.41124e-005 -3.75384e-005
1 24 -4.40699e-005 -3.23999e-005
1 25 -4.40241e-005 -2.69298e-005
1 26 -4.39743e-005 -2.11264e-005
1 27 -4.39198e-005 -1.49896e-005
1 28 -4.38601e-005 -8.52104e-006
1 29 -4.37948e-005 -1.72365e-006
1 30 -4.37239e-005 5.39864e-006
1 31 -4.36471e-005 1.28412e-005
1 32 -4.35647e-005 2.05989e-005
1 33 -4.34768e-005 2.86663e-005
1 34 -4.33836e-005 3.70381e-005
1 35 -4.32854e-005 4.57088e-005
1 36 -4.31825e-005 5.4673e-005
1 37 -4.30751e-005 6.39258e-005
1 38 -4.29636e-005 7.34622e-005
1 39 -4.28482e-005 8.32778e-005
1 40 -4.27291e-005 9.33683e-005
1 41 -4.26066e-005 0.00010373
1 42 -4.24808e-005 0.000114359
1 43 -4.23519e-005 0.000125252
1 44 -4.222e-005 0.000136406
1 45 -4.20852e-005 0.000147818
1 46 -4.19476e-005 0.000159487
1 47 -4.18072e-005 0.000171411
1 48 -4.16642e-005 0.000183587
1 49 -4.15184e-005 0.000196014
1 50 -4.137e-005 0.000208692
1 51 -4.1219e-005 0.000221619
1 52 -4.10653e-005 0.000234797
1 53 -4.0909e-005 0.000248224
1 54 -4.075e-005 0.000261901
1 55 -4.05885e-005 0.000275829
1 56 -4.04245e-005 0.00029001
1 57 -4.0258e-005 0.000304445
1 58 -4.00892e-005 0.000319137
1 59 -3.9918e-005 0.000334087
1 60 -3.97447e-005 0.000349299
1 61 -3.95693e-005 0.000364777
1 62 -3.93921e-005 0.000380525
1 63 -3.92133e-005 0.000396546
1 64 -3.90332e-005 0.000412847
1 65 -3.8852e-005 0.000429433
1 66 -3.867e-005 0.000446309
1 67 -3.84877e-005 0.000463483
1 68 -3.83054e-005 0.000480962
1 69 -3.81235e-005 0.000498753
1 70 -3.79427e-005 0.000516866
1 71 -3.77635e-005 0.00053531
1 72 -3.75864e-005 0.000554095
1 73 -3.74121e-005 0.00057323
1 74 -3.72413e-005 0.000592728
1 75 -3.70748e-005 0.000612601
1 76 -3.69133e-005 0.000632862
1 77 -3.67578e-005 0.000653523
1 78 -3.66091e-005 0.000674602
1 79 -3.64683e-005 0.000696111
1 80 -3.63363e-005 0.00071807
1 81 -3.62143e-005 0.000740494
1 82 -3.61034e-005 0.000763404
1 83 -3.60049e-005 0.000786819
1 84 -3.59201e-005 0.00081076
1 85 -3.58504e-005 0.00083525
1 86 -3.57971e-005 0.000860313
1 87 -3.57619e-005 0.000885975
1 88 -3.57465e-005 0.000912264
1 89 -3.57524e-005 0.000939208
1 90 -3.57817e-005 0.00096684
1 91 -3.58361e-005 0.000995192
1 92 -3.5918e-005 0.0010243
1 93 -3.60294e-005 0.00105421
1 94 -3.61728e-005 0.00108495
1 95 -3.63509e-005 0.00111657
1 96 -3.65664e-005 0.00114912
1 97 -3.68223e-005 0.00118265
1 98 -3.7122e-005 0.00121723
1 99 -3.74691e-005 0.0012529
1 100 -3.78676e-005 0.00128973
1 101 -3.83219e-005 0.00132781
1 102 -3.88367e-005 0.0013672
1 103 -3.94175e-005 0.00140799
1 104 -4.00702e-005 0.00145028
1 105 -4.08014e-005 0.00149417
1 106 -4.16188e-005 0.00153978
1 107 -4.25306e-005 0.00158723
1 108 -4.35464e-005 0.00163666
1 109 -4.4677e-005 0.00168823
1 110 -4.59345e-005 0.00174212
1 111 -4.7333e-005 0.0017985
1 112 -4.88883e-005 0.00185761
1 113 -5.06188e-005 0.00191968
1 114 -5.25454e-005 0.00198498
1 115 -5.46924e-005 0.00205383
1 116 -5.70878e-005 0.00212656
1 117 -5.97641e-005 0.00220358
1 118 -6.27592e-005 0.00228533
1 119 -6.61171e-005 0.00237232
1 120 -6.98897e-005 0.00246514
1 121 -7.41378e-005 0.00256445
1 122 -7.8933e-005 0.00267104
1 123 -8.43603e-005 0.00278578
1 124 -9.05207e-005 0.00290973
1 125 -9.7535e-005 0.00304406
1 126 -0.000105548 0.0031902
1 127 -0.000114736 0.00334979
1 128 -0.00012531 0.00352476
1 129 -0.000137532 0.00371742
1 130 -0.000151722 0.00393048
1 131 -0.00016828 0.00416723
1 132 -0.000187707 0.00443159
1 133 -0.000210636 0.00472833
1 134 -0.00023788 0.0050633
1 135 -0.00027049 0.00544368
1 136 -0.000309844 0.00587841
1 137 -0.000357771 0.00637872
1 138 -0.000416726 0.00695885
1 139 -0.000490038 0.00763703
1 140 -0.000582244 0.00843682
1 141 -0.000699493 0.00938877
1 142 -0.000849842 0.0105323
1 143 -0.00104268 0.0119169
1 144 -0.00128419 0.0135988
1 145 -0.00155628 0.0156205
1 146 -0.00172739 0.0179255
1 147 -0.0011832 0.0200317
1 148 0.00257449 0.0198068
1 149 0.0252484 0.00996327
1 150 0.1 0
2 0 0 0
2 1 -4.09871e-005 -3.84892e-005
2 2 -6.12515e-005 -6.98036e-005
2 3 -7.11359e-005 -9.17532e-005
2 4 -7.67105e-005 -0.000107219
2 5 -8.04403e-005 -0.000118147
2 6 -8.32664e-005 -0.000125675
2 7 -8.55373e-005 -0.000130497
2 8 -8.73831e-005 -0.000133099
2 9 -8.88635e-005 -0.000133861
2 10 -9.00219e-005 -0.000133104
2 11 -9.09036e-005 -0.000131097
2 12 -9.15574e-005 -0.000128063
2 13 -9.20328e-005 -0.000124176
2 14 -9.23767e-005 -0.000119567
2 15 -9.26297e-005 -0.000114326
2 16 -9.28252e-005 -0.000108509
2 17 -9.29882e-005 -0.000102145
2 18 -9.31362e-005 -9.52454e-005
2 19 -9.32804e-005 -8.78081e-005
2 20 -9.34266e-005 -7.9823e-005
2 21 -9.35767e-005 -7.1277e-005
2 22 -9.37302e-005 -6.21565e-005
2 23 -9.38848e-005 -5.24496e-005
2 24 -9.40375e-005 -4.21474e-005
2 25 -9.41852e-005 -3.12439e-005
2 26 -9.43249e-005 -1.97368e-005
2 27 -9.44541e-005 -7.6268e-006
2 28 -9.45706e-005 5.08271e-006
2 29 -9.46732e-005 1.83862e-005
2 30 -9.4761e-005 3.22764e-005
2 31 -9.48334e-005 4.6745e-005
2 32 -9.48904e-005 6.17827e-005
2 33 -9.49325e-005 7.73803e-005
2 34 -9.496e-005 9.35281e-005
2 35 -9.49738e-005 0.000110217
2 36 -9.49746e-005 0.000127438
2 37 -9.49633e-005 0.000145182
2 38 -9.49407e-005 0.000163442
2 39 -9.49078e-005 0.000182211
2 40 -9.48653e-005 0.000201482
2 41 -9.4814e-005 0.00022125
2 42 -9.47547e-005 0.00024151
2 43 -9.46879e-005 0.000262258
2 44 -9.46144e-005 0.00028349
2 45 -9.45345e-005 0.000305203
2 46 -9.44489e-005 0.000327396
2 47 -9.43579e-005 0.000350068
2 48 -9.42621e-005 0.000373217
2 49 -9.41616e-005 0.000396845
2 50 -9.4057e-005 0.000420952
2 51 -9.39485e-005 0.000445541
2 52 -9.38365e-005 0.000470612
2 53 -9.37214e-005 0.00049617
2 54 -9.36035e-005 0.000522218
2 55 -9.34833e-005 0.000548762
2 56 -9.33611e-005 0.000575807
2 57 -9.32374e-005 0.000603358
2 58 -9.31127e-005 0.000631424
2 59 -9.29876e-005 0.000660012
2 60 -9.28626e-005 0.00068913
2 61 -9.27385e-005 0.00071879
2 62 -9.2616e-005 0.000749
2 63 -9.24959e-005 0.000779773
2 64 -9.23792e-005 0.000811122
2 65 -9.22667e-005 0.000843059
2 66 -9.21596e-005 0.000875599
2 67 -9.20591e-005 0.000908758
2 68 -9.19663e-005 0.000942552
2 69 -9.18828e-005 0.000976998
2 70 -9.181e-005 0.00101212
2 71 -9.17494e-005 0.00104793
2 72 -9.17029e-005 0.00108445
2 73 -9.16722e-005 0.00112171
2 74 -9.16594e-005 0.00115972
2 75 -9.16665e-005 0.00119852
2 76 -9.16958e-005 0.00123813
2 77 -9.17496e-005 0.00127858
2 78 -9.18307e-005 0.0013199
2 79 -9.19415e-005 0.00136212
2 80 -9.20851e-005 0.00140528
2 81 -9.22645e-005 0.0014494
2 82 -9.24829e-005 0.00149453
2 83 -9.27438e-005 0.00154071
2 84 -9.30509e-005 0.00158798
2 85 -9.34081e-005 0.00163638
2 86 -9.38194e-005 0.00168596
2 87 -9.42894e-005 0.00173677
2 88 -9.48227e-005 0.00178887
2 89 -9.54245e-005 0.00184231
2 90 -9.61001e-005 0.00189715
2 91 -9.68553e-005 0.00195346
2 92 -9.76965e-005 0.00201131
2 93 -9.86302e-005 0.00207077
2 94 -9.9664e-005 0.00213193
2 95 -0.000100806 0.00219486
2 96 -0.000102064 0.00225967
2 97 -0.000103448 0.00232645
2 98 -0.000104968 0.00239532
2 99 -0.000106636 0.00246638
2 100 -0.000108464 0.00253977
2 101 -0.000110466 0.00261562
2 102 -0.000112657 0.00269409
2 103 -0.000115055 0.00277534
2 104 -0.000117678 0.00285955
2 105 -0.000120548 0.00294692
2 106 -0.000123689 0.00303768
2 107 -0.000127128 0.00313205
2 108 -0.000130896 0.00323031
2 109 -0.000135026 0.00333274
2 110 -0.000139559 0.00343969
2 111 -0.00014454 0.00355151
2 112 -0.000150019 0.0036686
2 113 -0.000156055 0.00379143
2 114 -0.000162716 0.00392051
2 115 -0.000170078 0.0040564
2 116 -0.000178232 0.00419975
2 117 -0.000187281 0.00435129
2 118 -0.000197345 0.00451186
2 119 -0.000208563 0.00468238
2 120 -0.000221099 0.00486393
2 121 -0.000235144 0.00505773
2 122 -0.000250921 0.00526517
2 123 -0.000268695 0.00548786
2 124 -0.000288778 0.00572764
2 125 -0.000311543 0.00598664
2 126 -0.000337431 0.00626732
2 127 -0.000366974 0.00657254
2 128 -0.000400812 0.00690563
2 129 -0.00043972 0.00727048
2 130 -0.000484644 0.00767165
2 131 -0.000536744 0.00811451
2 132 -0.000597454 0.0086054
2 133 -0.000668558 0.00915182
2 134 -0.000752295 0.00976268
2 135 -0.000851489 0.0104486
2 136 -0.000969728 0.0112222
2 137 -0.00111159 0.0120986
2 138 -0.0012829 0.0130954
2 139 -0.00149101 0.0142333
2 140 -0.00174491 0.0155352
2 141 -0.00205476 0.0170245
2 142 -0.0024295 0.0187197
2 143 -0.00286858 0.0206199
2 144 -0.00333638 0.0226695
2 145 -0.0036834 0.0246726
2 146 -0.00340455 0.0260943
2 147 -0.000903247 0.0256596
2 148 0.00860977 0.0208619
2 149 0.0384841 0.00984783
2 150 0.1 0
3 0 0 0
3 1 -4.68568e-005 -4.21247e-005
3 2 -7.66456e-005 -8.02734e-005
3 3 -9.45746e-005 -0.000110068
3 4 -0.000106275 -0.000132383
3 5 -0.000114685 -0.000148563
3 6 -0.000121205 -0.000159765
3 7 -0.000126463 -0.000166888
3 8 -0.000130745 -0.000170637
3 9 -0.000134206 -0.000171593
3 10 -0.000136959 -0.000170242
3 11 -0.000139113 -0.000166993
3 12 -0.000140777 -0.000162183
3 13 -0.000142059 -0.000156077
3 14 -0.000143057 -0.000148876
3 15 -0.000143858 -0.000140725
3 16 -0.000144532 -0.000131719
3 17 -0.000145135 -0.000121916
3 18 -0.000145703 -0.000111345
3 19 -0.000146261 -0.000100013
3 20 -0.000146823 -8.79176e-005
3 21 -0.000147394 -7.50479e-005
3 22 -0.000147975 -6.13914e-005
3 23 -0.000148561 -4.69364e-005
3 24 -0.000149146 -3.16737e-005
3 25 -0.000149725 -1.55978e-005
3 26 -0.000150292 1.29312e-006
3 27 -0.00015084 1.89971e-005
3 28 -0.000151367 3.75089e-005
3 29 -0.000151868 5.68208e-005
3 30 -0.000152343 7.6923e-005
3 31 -0.000152789 9.78041e-005
3 32 -0.000153206 0.000119452
3 33 -0.000153596 0.000141855
3 34 -0.000153958 0.000165001
3 35 -0.000154295 0.000188877
3 36 -0.000154608 0.000213473
3 37 -0.0001549 0.000238779
3 38 -0.00015517 0.000264785
3 39 -0.000155423 0.000291484
3 40 -0.000155659 0.000318868
3 41 -0.00015588 0.000346933
3 42 -0.000156089 0.000375672
3 43 -0.000156286 0.000405084
3 44 -0.000156473 0.000435166
3 45 -0.000156652 0.000465917
3 46 -0.000156823 0.000497337
3 47 -0.000156989 0.000529429
3 48 -0.000157149 0.000562193
3 49 -0.000157307 0.000595634
3 50 -0.000157461 0.000629756
3 51 -0.000157614 0.000664565
3 52 -0.000157767 0.000700069
3 53 -0.00015792 0.000736274
3 54 -0.000158075 0.00077319
3 55 -0.000158233 0.000810827
3 56 -0.000158394 0.000849197
3 57 -0.000158561 0.000888311
3 58 -0.000158734 0.000928183
3 59 -0.000158915 0.000968828
3 60 -0.000159106 0.00101026
3 61 -0.000159307 0.0010525
3 62 -0.00015952 0.00109556
3 63 -0.000159748 0.00113947
3 64 -0.000159992 0.00118424
3 65 -0.000160255 0.0012299
3 66 -0.000160538 0.00127647
3 67 -0.000160844 0.00132397
3 68 -0.000161175 0.00137243
3 69 -0.000161534 0.00142188
3 70 -0.000161925 0.00147235
3 71 -0.000162349 0.00152387
3 72 -0.000162811 0.00157646
3 73 -0.000163315 0.00163018
3 74 -0.000163863 0.00168504
3 75 -0.000164459 0.00174109
3 76 -0.000165109 0.00179837
3 77 -0.000165817 0.00185693
3 78 -0.000166587 0.00191679
3 79 -0.000167425 0.00197802
3 80 -0.000168336 0.00204066
3 81 -0.000169326 0.00210476
3 82 -0.000170402 0.00217038
3 83 -0.000171569 0.00223757
3 84 -0.000172835 0.0023064
3 85 -0.000174208 0.00237692
3 86 -0.000175695 0.00244922
3 87 -0.000177306 0.00252336
3 88 -0.000179049 0.00259941
3 89 -0.000180934 0.00267746
3 90 -0.000182973 0.0027576
3 91 -0.000185176 0.00283992
3 92 -0.000187556 0.00292452
3 93 -0.000190126 0.00301151
3 94 -0.000192902 0.00310099
3 95 -0.000195899 0.00319309
3 96 -0.000199135 0.00328795
3 97 -0.000202628 0.0033857
3 98 -0.0002064 0.0034865
3 99 -0.000210474 0.00359052
3 100 -0.000214875 0.00369792
3 101 -0.000219632 0.00380891
3 102 -0.000224776 0.0039237
3 103 -0.000230342 0.00404251
3 104 -0.00023637 0.00416561
3 105 -0.000242902 0.00429327
3 106 -0.000249988 0.00442579
3 107 -0.000257684 0.0045635
3 108 -0.000266053 0.00470677
3 109 -0.000275164 0.00485601
3 110 -0.000285098 0.00501167
3 111 -0.000295947 0.00517425
3 112 -0.000307814 0.0053443
3 113 -0.000320818 0.00552244
3 114 -0.000335096 0.00570936
3 115 -0.000350803 0.00590584
3 116 -0.000368119 0.00611275
3 117 -0.000387251 0.00633106
3 118 -0.000408438 0.00656187
3 119 -0.000431957 0.00680643
3 120 -0.00045813 0.00706614
3 121 -0.00048733 0.00734258
3 122 -0.000519996 0.00763758
3 123 -0.000556637 0.00795319
3 124 -0.000597856 0.00829174
3 125 -0.000644357 0.00865593
3 126 -0.000696977 0.0090488
3 127 -0.000756704 0.00947385
3 128 -0.000824716 0.0099351
3 129 -0.000902417 0.0104371
3 130 -0.00099149 0.0109853
3 131 -0.00109396 0.0115855
3 132 -0.00121226 0.0122447
3 133 -0.00134935 0.0129708
3 134 -0.00150878 0.0137727
3 135 -0.00169485 0.0146602
3 136 -0.00191268 0.0156443
3 137 -0.00216827 0.0167362
3 138 -0.00246838 0.017947
3 139 -0.0028199 0.0192854
3 140 -0.0032282 0.0207541
3 141 -0.00369283 0.0223424
3 142 -0.00419717 0.0240115
3 143 -0.00468354 0.0256664
3 144 -0.0049934 0.0271025
3 145 -0.00472424 0.0279115
3 146 -0.00289478 0.0273418
3 147 0.00278337 0.0241944
3 148 0.0172737 0.0171722
3 149 0.049139 0.0072013
3 150 0.1 0
4 0 0 0
4 1 -4.94282e-005 -4.33704e-005
4 2 -8.62231e-005 -8.45621e-005
4 3 -0.000111915 -0.000118811
4 4 -0.000130625 -0.000145655
4 5 -0.000144986 -0.000165658
4 6 -0.000156472 -0.000179678
4 7 -0.000165859 -0.000188578
4 8 -0.000173557 -0.000193148
4 9 -0.000179823 -0.000194086
4 10 -0.000184859 -0.000192002
4 11 -0.000188857 -0.000187415
4 12 -0.000192006 -0.00018076
4 13 -0.00019449 -0.000172382
4 14 -0.000196478 -0.00016255
4 15 -0.000198117 -0.000151459
4 16 -0.000199527 -0.000139245
4 17 -0.000200801 -0.000125995
4 18 -0.000202004 -0.000111759
4 19 -0.000203182 -9.65606e-005
4 20 -0.000204359 -8.0406e-005
4 21 -0.000205547 -6.32914e-005
4 22 -0.000206749 -4.52084e-005
4 23 -0.000207959 -2.61481e-005
4 24 -0.000209169 -6.10313e-006
4 25 -0.00021037 1.49304e-005
4 26 -0.000211553 3.69526e-005
4 27 -0.000212709 5.99599e-005
4 28 -0.000213831 8.39454e-005
4 29 -0.000214915 0.000108899
4 30 -0.000215957 0.000134809
4 31 -0.000216955 0.000161663
4 32 -0.000217909 0.000189445
4 33 -0.00021882 0.000218142
4 34 -0.000219689 0.000247739
4 35 -0.00022052 0.000278225
4 36 -0.000221314 0.000309585
4 37 -0.000222075 0.000341811
4 38 -0.000222806 0.000374891
4 39 -0.000223511 0.000408818
4 40 -0.000224192 0.000443586
4 41 -0.000224854 0.000479189
4 42 -0.000225499 0.000515625
4 43 -0.000226131 0.000552893
4 44 -0.000226751 0.000590991
4 45 -0.000227364 0.000629923
4 46 -0.00022797 0.00066969
4 47 -0.000228573 0.000710299
4 48 -0.000229176 0.000751754
4 49 -0.000229779 0.000794065
4 50 -0.000230386 0.000837239
4 51 -0.000230999 0.000881287
4 52 -0.000231619 0.000926221
4 53 -0.000232249 0.000972055
4 54 -0.000232891 0.0010188
4 55 -0.000233546 0.00106648
4 56 -0.000234218 0.00111511
4 57 -0.000234908 0.0011647
4 58 -0.000235619 0.00121528
4 59 -0.000236353 0.00126686
4 60 -0.000237113 0.00131948
4 61 -0.000237901 0.00137316
4 62 -0.000238721 0.00142792
4 63 -0.000239575 0.00148378
4 64 -0.000240467 0.00154079
4 65 -0.000241401 0.00159896
4 66 -0.000242379 0.00165834
4 67 -0.000243405 0.00171895
4 68 -0.000244485 0.00178084
4 69 -0.000245622 0.00184403
4 70 -0.00024682 0.00190857
4 71 -0.000248086 0.0019745
4 72 -0.000249423 0.00204186
4 73 -0.000250839 0.0021107
4 74 -0.000252338 0.00218106
4 75 -0.000253928 0.00225299
4 76 -0.000255614 0.00232655
4 77 -0.000257405 0.0024018
4 78 -0.000259308 0.00247878
4 79 -0.000261331 0.00255755
4 80 -0.000263482 0.00263819
4 81 -0.000265772 0.00272076
4 82 -0.00026821 0.00280532
4 83 -0.000270806 0.00289195
4 84 -0.000273573 0.00298073
4 85 -0.000276521 0.00307174
4 86 -0.000279664 0.00316507
4 87 -0.000283017 0.00326081
4 88 -0.000286593 0.00335905
4 89 -0.000290409 0.0034599
4 90 -0.000294482 0.00356347
4 91 -0.000298831 0.00366988
4 92 -0.000303476 0.00377924
4 93 -0.00030844 0.0038917
4 94 -0.000313746 0.00400739
4 95 -0.000319421 0.00412647
4 96 -0.000325492 0.0042491
4 97 -0.000331992 0.00437546
4 98 -0.000338955 0.00450574
4 99 -0.000346419 0.00464013
4 100 -0.000354426 0.00477887
4 101 -0.000363023 0.00492218
4 102 -0.00037226 0.00507034
4 103 -0.000382196 0.00522362
4 104 -0.000392896 0.00538234
4 105 -0.00040443 0.00554682
4 106 -0.000416879 0.00571744
4 107 -0.000430335 0.0058946
4 108 -0.000444899 0.00607875
4 109 -0.000460687 0.00627037
4 110 -0.000477829 0.00647
4 111 -0.000496473 0.00667825
4 112 -0.000516788 0.00689576
4 113 -0.000538965 0.00712328
4 114 -0.000563223 0.00736162
4 115 -0.000589812 0.00761168
4 116 -0.000619017 0.00787448
4 117 -0.000651169 0.00815115
4 118 -0.000686643 0.00844295
4 119 -0.000725874 0.0087513
4 120 -0.000769365 0.0090778
4 121 -0.000817696 0.00942423
4 122 -0.000871536 0.0097926
4 123 -0.000931666 0.0101852
4 124 -0.00099899 0.0106045
4 125 -0.00107456 0.0110533
4 126 -0.00115961 0.011535
4 127 -0.00125557 0.0120531
4 128 -0.00136411 0.0126116
4 129 -0.0014872 0.013215
4 130 -0.00162712 0.0138682
4 131 -0.00178655 0.0145767
4 132 -0.00196858 0.0153465
4 133 -0.0021768 0.0161836
4 134 -0.00241524 0.0170945
4 135 -0.0026884 0.0180852
4 136 -0.00300096 0.0191606
4 137 -0.00335732 0.0203234
4 138 -0.00376045 0.0215716
4 139 -0.00420955 0.0228946
4 140 -0.00469519 0.0242667
4 141 -0.00518945 0.0256361
4 142 -0.00562566 0.026906
4 143 -0.00585728 0.0279045
4 144 -0.00557428 0.0283401
4 145 -0.00413807 0.0277471
4 146 -0.000274657 0.0254571
4 147 0.00841609 0.0207253
4 148 0.0259479 0.0133397
4 149 0.0571129 0.00515368
4 150 0.1 0
5 0 0 0
5 1 -5.08942e-005 -4.36238e-005
5 2 -9.30598e-005 -8.58666e-005
5 3 -0.00012576 -0.000122176
5 4 -0.000151602 -0.000151487
5 5 -0.000172542 -0.000173783
5 6 -0.000189827 -0.000189568
5 7 -0.000204199 -0.000199552
5 8 -0.000216111 -0.000204498
5 9 -0.000225889 -0.000205142
5 10 -0.00023382 -0.000202161
5 11 -0.000240185 -0.000196148
5 12 -0.000245263 -0.000187609
5 13 -0.000249327 -0.000176954
5 14 -0.000252628 -0.000164505
5 15 -0.000255384 -0.000150504
5 16 -0.000257775 -0.000135124
5 17 -0.00025994 -0.00011848
5 18 -0.00026198 -0.000100643
5 19 -0.000263966 -8.16541e-005
5 20 -0.000265938 -6.15309e-005
5 21 -0.000267916 -4.0278e-005
5 22 -0.000269908 -1.78932e-005
5 23 -0.000271907 5.62813e-006
5 24 -0.000273906 3.029e-005
5 25 -0.00027589 5.60938e-005
5 26 -0.000277849 8.30376e-005
5 27 -0.00027977 0.000111116
5 28 -0.000281645 0.000140319
5 29 -0.000283465 0.000170637
5 30 -0.000285227 0.000202055
5 31 -0.000286927 0.000234558
5 32 -0.000288567 0.00026813
5 33 -0.000290146 0.000302756
5 34 -0.000291668 0.000338421
5 35 -0.000293136 0.000375111
5 36 -0.000294555 0.000412813
5 37 -0.00029593 0.000451515
5 38 -0.000297265 0.000491208
5 39 -0.000298567 0.000531886
5 40 -0.000299839 0.000573541
5 41 -0.000301088 0.000616172
5 42 -0.000302319 0.000659776
5 43 -0.000303535 0.000704354
5 44 -0.000304742 0.000749908
5 45 -0.000305944 0.000796443
5 46 -0.000307146 0.000843966
5 47 -0.00030835 0.000892484
5 48 -0.000309561 0.000942008
5 49 -0.000310783 0.000992549
5 50 -0.000312018 0.00104412
5 51 -0.000313272 0.00109674
5 52 -0.000314546 0.00115042
5 53 -0.000315845 0.00120518
5 54 -0.000317171 0.00126105
5 55 -0.000318529 0.00131804
5 56 -0.000319921 0.00137617
5 57 -0.000321351 0.00143548
5 58 -0.000322824 0.00149599
5 59 -0.000324342 0.00155772
5 60 -0.00032591 0.00162071
5 61 -0.000327532 0.00168499
5 62 -0.000329211 0.0017506
5 63 -0.000330954 0.00181756
5 64 -0.000332764 0.00188591
5 65 -0.000334646 0.0019557
5 66 -0.000336606 0.00202696
5 67 -0.00033865 0.00209974
5 68 -0.000340783 0.00217408
5 69 -0.000343012 0.00225002
5 70 -0.000345343 0.00232762
5 71 -0.000347784 0.00240692
5 72 -0.000350342 0.00248798
5 73 -0.000353026 0.00257085
5 74 -0.000355843 0.00265559
5 75 -0.000358803 0.00274226
5 76 -0.000361916 0.00283093
5 77 -0.000365192 0.00292165
5 78 -0.000368641 0.0030145
5 79 -0.000372276 0.00310955
5 80 -0.000376109 0.00320688
5 81 -0.000380153 0.00330656
5 82 -0.000384422 0.00340867
5 83 -0.000388932 0.00351331
5 84 -0.000393699 0.00362057
5 85 -0.00039874 0.00373054
5 86 -0.000404073 0.00384332
5 87 -0.000409719 0.00395903
5 88 -0.000415699 0.00407778
5 89 -0.000422037 0.00419969
5 90 -0.000428758 0.00432488
5 91 -0.000435887 0.0044535
5 92 -0.000443456 0.00458569
5 93 -0.000451496 0.0047216
5 94 -0.000460041 0.0048614
5 95 -0.00046913 0.00500526
5 96 -0.000478804 0.00515338
5 97 -0.000489108 0.00530596
5 98 -0.000500093 0.00546321
5 99 -0.000511813 0.00562537
5 100 -0.00052433 0.0057927
5 101 -0.000537711 0.00596545
5 102 -0.00055203 0.00614395
5 103 -0.000567371 0.00632849
5 104 -0.000583826 0.00651943
5 105 -0.000601499 0.00671716
5 106 -0.000620506 0.00692208
5 107 -0.000640976 0.00713464
5 108 -0.000663056 0.00735535
5 109 -0.000686911 0.00758474
5 110 -0.000712726 0.00782341
5 111 -0.000740711 0.00807201
5 112 -0.000771105 0.00833127
5 113 -0.000804177 0.00860199
5 114 -0.000840234 0.00888504
5 115 -0.000879625 0.0091814
5 116 -0.000922748 0.00949215
5 117 -0.000970055 0.00981848
5 118 -0.00102207 0.0101617
5 119 -0.00107937 0.0105234
5 120 -0.00114266 0.010905
5 121 -0.00121269 0.0113085
5 122 -0.00129037 0.0117358
5 123 -0.00137672 0.0121892
5 124 -0.00147291 0.0126711
5 125 -0.00158029 0.0131842
5 126 -0.00170041 0.0137315
5 127 -0.00183503 0.0143162
5 128 -0.00198616 0.0149417
5 129 -0.00215609 0.0156118
5 130 -0.00234741 0.0163303
5 131 -0.00256298 0.017101
5 132 -0.00280594 0.0179277
5 133 -0.00307959 0.0188134
5 134 -0.00338723 0.0197603
5 135 -0.00373173 0.0207686
5 136 -0.00411487 0.0218353
5 137 -0.00453588 0.022952
5 138 -0.00498903 0.0241017
5 139 -0.00545905 0.0252537
5 140 -0.00591283 0.0263559
5 141 -0.00628426 0.0273229
5 142 -0.00644653 0.0280194
5 143 -0.0061623 0.0282379
5 144 -0.00499572 0.0276752
5 145 -0.00216604 0.0259245
5 146 0.0036683 0.0225288
5 147 0.0146387 0.0171945
5 148 0.0336131 0.0103174
5 149 0.0630551 0.00376441
5 150 0.1 0
6 0 0 0
6 1 -5.22373e-005 -4.34375e-005
6 2 -9.89623e-005 -8.56923e-005
6 3 -0.000138028 -0.000122557
6 4 -0.000170826 -0.000152799
6 5 -0.00019857 -0.000176079
6 6 -0.000222121 -0.000192623
6 7 -0.00024205 -0.000202968
6 8 -0.000258767 -0.000207797
6 9 -0.00027262 -0.000207828
6 10 -0.000283958 -0.000203759
6 11 -0.000293142 -0.000196219
6 12 -0.000300546 -0.000185759
6 13 -0.000306537 -0.000172834
6 14 -0.000311451 -0.000157807
6 15 -0.000315588 -0.000140955
6 16 -0.000319193 -0.000122483
6 17 -0.000322459 -0.00010253
6 18 -0.000325529 -8.11879e-005
6 19 -0.0003285 -5.8513e-005
6 20 -0.000331434 -3.45352e-005
6 21 -0.000334363 -9.2681e-006
6 22 -0.000337298 1.72836e-005
6 23 -0.000340238 4.51195e-005
6 24 -0.000343172 7.42397e-005
6 25 -0.000346085 0.000104642
6 26 -0.000348963 0.000136323
6 27 -0.00035179 0.000169274
6 28 -0.000354555 0.000203485
6 29 -0.000357248 0.000238942
6 30 -0.000359865 0.00027563
6 31 -0.000362402 0.000313533
6 32 -0.00036486 0.000352633
6 33 -0.000367239 0.000392915
6 34 -0.000369544 0.000434361
6 35 -0.00037178 0.000476958
6 36 -0.000373954 0.000520692
6 37 -0.000376072 0.000565552
6 38 -0.000378142 0.000611529
6 39 -0.000380171 0.000658616
6 40 -0.000382166 0.000706809
6 41 -0.000384136 0.000756105
6 42 -0.000386087 0.000806504
6 43 -0.000388026 0.00085801
6 44 -0.00038996 0.000910626
6 45 -0.000391895 0.000964361
6 46 -0.000393838 0.00101922
6 47 -0.000395793 0.00107522
6 48 -0.000397767 0.00113238
6 49 -0.000399765 0.0011907
6 50 -0.000401792 0.00125021
6 51 -0.000403854 0.00131092
6 52 -0.000405955 0.00137286
6 53 -0.0004081 0.00143605
6 54 -0.000410294 0.00150051
6 55 -0.000412543 0.00156628
6 56 -0.00041485 0.00163338
6 57 -0.000417222 0.00170184
6 58 -0.000419664 0.00177169
6 59 -0.00042218 0.00184298
6 60 -0.000424776 0.00191573
6 61 -0.000427458 0.00198998
6 62 -0.000430233 0.00206578
6 63 -0.000433105 0.00214316
6 64 -0.000436082 0.00222217
6 65 -0.000439171 0.00230285
6 66 -0.000442378 0.00238526
6 67 -0.000445712 0.00246943
6 68 -0.00044918 0.00255543
6 69 -0.000452791 0.00264331
6 70 -0.000456554 0.00273313
6 71 -0.000460478 0.00282493
6 72 -0.000464573 0.00291879
6 73 -0.000468851 0.00301477
6 74 -0.000473322 0.00311292
6 75 -0.000477999 0.00321334
6 76 -0.000482894 0.00331607
6 77 -0.000488021 0.00342121
6 78 -0.000493394 0.00352883
6 79 -0.00049903 0.003639
6 80 -0.000504945 0.00375183
6 81 -0.000511155 0.00386739
6 82 -0.000517681 0.00398578
6 83 -0.000524543 0.0041071
6 84 -0.000531761 0.00423146
6 85 -0.000539359 0.00435896
6 86 -0.000547362 0.00448972
6 87 -0.000555797 0.00462386
6 88 -0.000564692 0.00476151
6 89 -0.000574079 0.0049028
6 90 -0.00058399 0.00504788
6 91 -0.000594462 0.0051969
6 92 -0.000605535 0.00535002
6 93 -0.000617251 0.00550741
6 94 -0.000629656 0.00566925
6 95 -0.000642801 0.00583575
6 96 -0.000656742 0.0060071
6 97 -0.000671539 0.00618353
6 98 -0.000687259 0.00636528
6 99 -0.000703975 0.0065526
6 100 -0.000721769 0.00674577
6 101 -0.000740729 0.00694508
6 102 -0.000760956 0.00715086
6 103 -0.000782558 0.00736345
6 104 -0.00080566 0.00758321
6 105 -0.000830396 0.00781057
6 106 -0.00085692 0.00804595
6 107 -0.000885403 0.00828983
6 108 -0.000916036 0.00854274
6 109 -0.000949034 0.00880524
6 110 -0.000984638 0.00907796
6 111 -0.00102312 0.00936156
6 112 -0.00106479 0.0096568
6 113 -0.00110999 0.00996449
6 114 -0.00115912 0.0102855
6 115 -0.00121262 0.0106209
6 116 -0.00127099 0.0109716
6 117 -0.00133481 0.0113389
6 118 -0.00140471 0.0117241
6 119 -0.00148143 0.0121286
6 120 -0.00156581 0.0125538
6 121 -0.00165879 0.0130016
6 122 -0.00176143 0.0134738
6 123 -0.00187496 0.0139723
6 124 -0.00200072 0.0144993
6 125 -0.00214026 0.015057
6 126 -0.00229531 0.0156479
6 127 -0.00246778 0.0162744
6 128 -0.00265977 0.0169389
6 129 -0.0028736 0.017644
6 130 -0.00311168 0.0183916
6 131 -0.00337651 0.0191834
6 132 -0.0036705 0.0200202
6 133 -0.00399566 0.0209013
6 134 -0.00435316 0.0218237
6 135 -0.00474249 0.0227812
6 136 -0.00516011 0.0237623
6 137 -0.00559709 0.0247478
6 138 -0.00603523 0.0257071
6 139 -0.0064405 0.026593
6 140 -0.00675191 0.0273344
6 141 -0.00686298 0.0278264
6 142 -0.00659086 0.0279191
6 143 -0.00562646 0.0274066
6 144 -0.00345739 0.0260246
6 145 0.000739517 0.0234757
6 146 0.00821677 0.0195183
6 147 0.0206969 0.0141743
6 148 0.0400969 0.00808323
6 149 0.0675652 0.00283211
6 150 0.1 0
7 0 0 0
7 1 -5.39108e-005 -4.30483e-005
7 2 -0.000104936 -8.47759e-005
7 3 -0.000149981 -0.000121296
7 4 -0.000189525 -0.000151426
7 5 -0.000224105 -0.000174691
7 6 -0.000254147 -0.000191148
7 7 -0.000279983 -0.000201196
7 8 -0.000301911 -0.000205426
7 9 -0.000320258 -0.000204514
7 10 -0.000335405 -0.000199146
7 11 -0.000347784 -0.000189962
7 12 -0.000357856 -0.000177532
7 13 -0.000366077 -0.000162338
7 14 -0.000372879 -0.00014477
7 15 -0.000378641 -0.000125132
7 16 -0.000383679 -0.00010365
7 17 -0.000388246 -8.04845e-005
7 18 -0.000392527 -5.5745e-005
7 19 -0.000396653 -2.95007e-005
7 20 -0.000400708 -1.79267e-006
7 21 -0.000404739 2.73565e-005
7 22 -0.000408764 5.79354e-005
7 23 -0.000412785 8.99384e-005
7 24 -0.000416792 0.000123361
7 25 -0.000420768 0.000158199
7 26 -0.000424696 0.000194445
7 27 -0.000428559 0.000232089
7 28 -0.000432343 0.000271119
7 29 -0.000436038 0.000311519
7 30 -0.000439636 0.000353274
7 31 -0.000443133 0.000396364
7 32 -0.000446532 0.000440773
7 33 -0.000449833 0.000486483
7 34 -0.000453043 0.000533477
7 35 -0.000456169 0.00058174
7 36 -0.000459219 0.000631259
7 37 -0.000462202 0.000682022
7 38 -0.000465128 0.000734021
7 39 -0.000468007 0.00078725
7 40 -0.00047085 0.000841704
7 41 -0.000473665 0.000897383
7 42 -0.000476464 0.000954288
7 43 -0.000479255 0.00101242
7 44 -0.000482047 0.0010718
7 45 -0.000484849 0.00113242
7 46 -0.000487669 0.0011943
7 47 -0.000490516 0.00125745
7 48 -0.000493396 0.00132189
7 49 -0.000496318 0.00138764
7 50 -0.000499288 0.00145472
7 51 -0.000502313 0.00152316
7 52 -0.0005054 0.00159297
7 53 -0.000508556 0.00166419
7 54 -0.000511788 0.00173684
7 55 -0.000515102 0.00181096
7 56 -0.000518504 0.00188658
7 57 -0.000522002 0.00196374
7 58 -0.000525603 0.00204247
7 59 -0.000529313 0.00212282
7 60 -0.00053314 0.00220482
7 61 -0.000537092 0.00228852
7 62 -0.000541175 0.00237396