Title= "LBM Lid Driven Flow"
VARIABLES="X","Y","U","V"
ZONE T="BOX",I=151,J=101,F=POINT
0 0 0 0
0 1 0 0
0 2 0 0
0 3 0 0
0 4 0 0
0 5 0 0
0 6 0 0
0 7 0 0
0 8 0 0
0 9 0 0
0 10 0 0
0 11 0 0
0 12 0 0
0 13 0 0
0 14 0 0
0 15 0 0
0 16 0 0
0 17 0 0
0 18 0 0
0 19 0 0
0 20 0 0
0 21 0 0
0 22 0 0
0 23 0 0
0 24 0 0
0 25 0 0
0 26 0 0
0 27 0 0
0 28 0 0
0 29 0 0
0 30 0 0
0 31 0 0
0 32 0 0
0 33 0 0
0 34 0 0
0 35 0 0
0 36 0 0
0 37 0 0
0 38 0 0
0 39 0 0
0 40 0 0
0 41 0 0
0 42 0 0
0 43 0 0
0 44 0 0
0 45 0 0
0 46 0 0
0 47 0 0
0 48 0 0
0 49 0 0
0 50 0 0
0 51 0 0
0 52 0 0
0 53 0 0
0 54 0 0
0 55 0 0
0 56 0 0
0 57 0 0
0 58 0 0
0 59 0 0
0 60 0 0
0 61 0 0
0 62 0 0
0 63 0 0
0 64 0 0
0 65 0 0
0 66 0 0
0 67 0 0
0 68 0 0
0 69 0 0
0 70 0 0
0 71 0 0
0 72 0 0
0 73 0 0
0 74 0 0
0 75 0 0
0 76 0 0
0 77 0 0
0 78 0 0
0 79 0 0
0 80 0 0
0 81 0 0
0 82 0 0
0 83 0 0
0 84 0 0
0 85 0 0
0 86 0 0
0 87 0 0
0 88 0 0
0 89 0 0
0 90 0 0
0 91 0 0
0 92 0 0
0 93 0 0
0 94 0 0
0 95 0 0
0 96 0 0
0 97 0 0
0 98 0 0
0 99 0 0
0 100 0.1 0
1 0 0 0
1 1 -5.7121e-006 -6.89319e-006
1 2 -7.75042e-006 -1.16157e-005
1 3 -8.84129e-006 -1.43496e-005
1 4 -9.68941e-006 -1.56842e-005
1 5 -1.04779e-005 -1.57886e-005
1 6 -1.12555e-005 -1.47052e-005
1 7 -1.20359e-005 -1.24384e-005
1 8 -1.28238e-005 -8.97975e-006
1 9 -1.36215e-005 -4.31475e-006
1 10 -1.44301e-005 1.57399e-006
1 11 -1.52495e-005 8.7046e-006
1 12 -1.60786e-005 1.70942e-005
1 13 -1.69154e-005 2.67573e-005
1 14 -1.77575e-005 3.77048e-005
1 15 -1.86019e-005 4.99428e-005
1 16 -1.94456e-005 6.34728e-005
1 17 -2.02854e-005 7.82912e-005
1 18 -2.11186e-005 9.43893e-005
1 19 -2.19424e-005 0.000111754
1 20 -2.27546e-005 0.000130369
1 21 -2.35531e-005 0.000150213
1 22 -2.43363e-005 0.000171263
1 23 -2.5103e-005 0.000193493
1 24 -2.58522e-005 0.000216875
1 25 -2.65833e-005 0.000241381
1 26 -2.7296e-005 0.00026698
1 27 -2.799e-005 0.000293644
1 28 -2.86654e-005 0.000321341
1 29 -2.93226e-005 0.000350043
1 30 -2.99619e-005 0.000379719
1 31 -3.05839e-005 0.00041034
1 32 -3.11894e-005 0.000441881
1 33 -3.17791e-005 0.000474313
1 34 -3.2354e-005 0.000507613
1 35 -3.29152e-005 0.000541757
1 36 -3.34639e-005 0.000576724
1 37 -3.40014e-005 0.000612494
1 38 -3.45292e-005 0.00064905
1 39 -3.5049e-005 0.000686377
1 40 -3.55625e-005 0.000724463
1 41 -3.60717e-005 0.0007633
1 42 -3.65789e-005 0.00080288
1 43 -3.70864e-005 0.000843204
1 44 -3.7597e-005 0.000884271
1 45 -3.81134e-005 0.00092609
1 46 -3.8639e-005 0.00096867
1 47 -3.91773e-005 0.00101203
1 48 -3.97323e-005 0.00105619
1 49 -4.03081e-005 0.00110118
1 50 -4.09097e-005 0.00114703
1 51 -4.15422e-005 0.00119379
1 52 -4.22115e-005 0.00124152
1 53 -4.29241e-005 0.00129027
1 54 -4.36871e-005 0.00134012
1 55 -4.45083e-005 0.00139115
1 56 -4.53968e-005 0.00144346
1 57 -4.63623e-005 0.00149716
1 58 -4.74159e-005 0.00155238
1 59 -4.857e-005 0.00160928
1 60 -4.98386e-005 0.00166801
1 61 -5.12372e-005 0.00172876
1 62 -5.27836e-005 0.00179176
1 63 -5.44979e-005 0.00185725
1 64 -5.64031e-005 0.00192551
1 65 -5.85252e-005 0.00199686
1 66 -6.0894e-005 0.00207165
1 67 -6.3544e-005 0.00215031
1 68 -6.65147e-005 0.00223329
1 69 -6.98519e-005 0.00232114
1 70 -7.3609e-005 0.00241445
1 71 -7.78482e-005 0.00251394
1 72 -8.26423e-005 0.0026204
1 73 -8.80775e-005 0.00273476
1 74 -9.42555e-005 0.00285809
1 75 -0.000101297 0.00299162
1 76 -0.000109349 0.0031368
1 77 -0.000118584 0.00329531
1 78 -0.000129216 0.00346914
1 79 -0.000141503 0.00366061
1 80 -0.000155766 0.00387249
1 81 -0.000172401 0.0041081
1 82 -0.000191907 0.0043714
1 83 -0.000214914 0.00466721
1 84 -0.000242229 0.00500139
1 85 -0.000274898 0.00538116
1 86 -0.000314291 0.0058155
1 87 -0.000362226 0.00631566
1 88 -0.000421143 0.0068959
1 89 -0.000494352 0.00757449
1 90 -0.000586367 0.00837497
1 91 -0.000703314 0.00932794
1 92 -0.000853251 0.0104729
1 93 -0.00104566 0.0118593
1 94 -0.00128707 0.013544
1 95 -0.00156045 0.0155706
1 96 -0.00173635 0.017885
1 97 -0.00120355 0.0200075
1 98 0.00254231 0.0198026
1 99 0.0252413 0.00997162
1 100 0.1 0
2 0 0 0
2 1 -8.45536e-006 -9.11491e-006
2 2 -1.33925e-005 -1.65389e-005
2 3 -1.67395e-005 -2.10744e-005
2 4 -1.95328e-005 -2.2979e-005
2 5 -2.21472e-005 -2.24474e-005
2 6 -2.47126e-005 -1.95718e-005
2 7 -2.7278e-005 -1.43808e-005
2 8 -2.98651e-005 -6.86859e-006
2 9 -3.24846e-005 2.98867e-006
2 10 -3.51416e-005 1.52243e-005
2 11 -3.78362e-005 2.98748e-005
2 12 -4.0565e-005 4.69756e-005
2 13 -4.33217e-005 6.65576e-005
2 14 -4.60977e-005 8.86445e-005
2 15 -4.88832e-005 0.000113252
2 16 -5.16679e-005 0.000140385
2 17 -5.44413e-005 0.00017004
2 18 -5.71938e-005 0.000202203
2 19 -5.99162e-005 0.000236853
2 20 -6.26007e-005 0.000273958
2 21 -6.52406e-005 0.000313481
2 22 -6.78301e-005 0.000355379
2 23 -7.03649e-005 0.000399603
2 24 -7.28417e-005 0.000446102
2 25 -7.52581e-005 0.000494821
2 26 -7.76129e-005 0.000545704
2 27 -7.99053e-005 0.000598692
2 28 -8.21357e-005 0.000653728
2 29 -8.43046e-005 0.000710755
2 30 -8.64135e-005 0.000769715
2 31 -8.84642e-005 0.000830553
2 32 -9.0459e-005 0.000893216
2 33 -9.24006e-005 0.000957652
2 34 -9.42921e-005 0.00102381
2 35 -9.61372e-005 0.00109165
2 36 -9.79398e-005 0.00116113
2 37 -9.97044e-005 0.00123221
2 38 -0.000101436 0.00130485
2 39 -0.00010314 0.00137903
2 40 -0.000104822 0.00145473
2 41 -0.000106489 0.00153191
2 42 -0.000108148 0.00161058
2 43 -0.000109808 0.00169073
2 44 -0.000111477 0.00177237
2 45 -0.000113164 0.00185549
2 46 -0.000114881 0.00194013
2 47 -0.00011664 0.00202632
2 48 -0.000118452 0.0021141
2 49 -0.000120333 0.00220352
2 50 -0.000122299 0.00229465
2 51 -0.000124366 0.00238758
2 52 -0.000126554 0.00248241
2 53 -0.000128884 0.00257926
2 54 -0.00013138 0.00267826
2 55 -0.000134068 0.00277958
2 56 -0.000136976 0.00288341
2 57 -0.000140138 0.00298996
2 58 -0.000143589 0.00309947
2 59 -0.000147369 0.00321223
2 60 -0.000151525 0.00332855
2 61 -0.000156107 0.0034488
2 62 -0.000161173 0.00357338
2 63 -0.000166787 0.00370276
2 64 -0.000173024 0.00383746
2 65 -0.000179968 0.00397808
2 66 -0.000187715 0.0041253
2 67 -0.000196374 0.00427988
2 68 -0.000206073 0.00444268
2 69 -0.000216956 0.0046147
2 70 -0.000229193 0.00479705
2 71 -0.00024298 0.00499102
2 72 -0.000258547 0.00519805
2 73 -0.000276161 0.00541984
2 74 -0.000296139 0.00565828
2 75 -0.000318855 0.00591558
2 76 -0.000344755 0.0061943
2 77 -0.000374371 0.00649736
2 78 -0.000408344 0.00682818
2 79 -0.000447449 0.00719074
2 80 -0.000492631 0.00758969
2 81 -0.000545048 0.00803048
2 82 -0.000606132 0.00851954
2 83 -0.000677665 0.00906447
2 84 -0.00076188 0.00967427
2 85 -0.000861599 0.0103597
2 86 -0.000980405 0.0111334
2 87 -0.00112286 0.0120106
2 88 -0.0012948 0.0130092
2 89 -0.00150355 0.0141498
2 90 -0.00175812 0.0154556
2 91 -0.0020687 0.0169504
2 92 -0.00244435 0.0186528
2 93 -0.00288489 0.0205625
2 94 -0.00335545 0.0226248
2 95 -0.00370801 0.0246449
2 96 -0.00343921 0.0260876
2 97 -0.000950032 0.0256752
2 98 0.00854661 0.0208949
2 99 0.0385235 0.00985011
2 100 0.1 0
3 0 0 0
3 1 -9.74111e-006 -9.51311e-006
3 2 -1.7634e-005 -1.75162e-005
3 3 -2.41035e-005 -2.22742e-005
3 4 -2.9907e-005 -2.36026e-005
3 5 -3.54259e-005 -2.15407e-005
3 6 -4.08444e-005 -1.61449e-005
3 7 -4.62545e-005 -7.43934e-006
3 8 -5.17057e-005 4.58588e-006
3 9 -5.72254e-005 1.99646e-005
3 10 -6.28265e-005 3.87448e-005
3 11 -6.85108e-005 6.09806e-005
3 12 -7.42717e-005 8.6725e-005
3 13 -8.00958e-005 0.000116025
3 14 -8.59653e-005 0.00014892
3 15 -9.18592e-005 0.000185433
3 16 -9.77554e-005 0.000225578
3 17 -0.000103632 0.000269353
3 18 -0.000109468 0.000316742
3 19 -0.000115243 0.000367718
3 20 -0.000120942 0.00042224
3 21 -0.000126548 0.000480258
3 22 -0.00013205 0.000541713
3 23 -0.000137437 0.00060654
3 24 -0.000142703 0.000674665
3 25 -0.000147842 0.000746012
3 26 -0.000152851 0.000820502
3 27 -0.000157728 0.000898055
3 28 -0.000162473 0.000978587
3 29 -0.000167087 0.00106202
3 30 -0.000171574 0.00114826
3 31 -0.000175937 0.00123725
3 32 -0.00018018 0.00132889
3 33 -0.000184309 0.00142312
3 34 -0.000188331 0.00151987
3 35 -0.000192254 0.00161908
3 36 -0.000196085 0.00172067
3 37 -0.000199834 0.0018246
3 38 -0.000203511 0.00193081
3 39 -0.000207129 0.00203927
3 40 -0.000210699 0.00214994
3 41 -0.000214236 0.00226279
3 42 -0.000217754 0.00237781
3 43 -0.000221272 0.00249498
3 44 -0.000224807 0.00261431
3 45 -0.000228381 0.00273582
3 46 -0.000232015 0.00285953
3 47 -0.000235734 0.00298549
3 48 -0.000239567 0.00311375
3 49 -0.000243541 0.00324439
3 50 -0.000247692 0.00337751
3 51 -0.000252054 0.00351323
3 52 -0.000256669 0.00365168
3 53 -0.000261581 0.00379303
3 54 -0.000266838 0.00393746
3 55 -0.000272495 0.00408522
3 56 -0.000278613 0.00423655
3 57 -0.000285258 0.00439175
3 58 -0.000292505 0.00455117
3 59 -0.000300438 0.00471518
3 60 -0.00030915 0.00488422
3 61 -0.000318745 0.0050588
3 62 -0.000329343 0.00523946
3 63 -0.000341075 0.00542685
3 64 -0.000354092 0.00562168
3 65 -0.000368564 0.00582476
3 66 -0.000384685 0.006037
3 67 -0.000402676 0.00625941
3 68 -0.00042279 0.00649318
3 69 -0.000445318 0.0067396
3 70 -0.000470593 0.00700016
3 71 -0.000499002 0.00727653
3 72 -0.000530993 0.00757062
3 73 -0.000567087 0.00788459
3 74 -0.000607893 0.00822087
3 75 -0.000654126 0.00858226
3 76 -0.000706627 0.00897194
3 77 -0.000766389 0.00939351
3 78 -0.000834593 0.00985113
3 79 -0.000912647 0.0103495
3 80 -0.00100223 0.0108941
3 81 -0.00110538 0.0114909
3 82 -0.00122453 0.0121472
3 83 -0.00136262 0.0128708
3 84 -0.00152322 0.0136709
3 85 -0.00171062 0.0145575
3 86 -0.00192996 0.0155415
3 87 -0.00218724 0.0166346
3 88 -0.00248923 0.0178479
3 89 -0.00284285 0.0191903
3 90 -0.00325352 0.020665
3 91 -0.00372092 0.0222614
3 92 -0.00422864 0.0239411
3 93 -0.00471946 0.0256095
3 94 -0.00503552 0.0270621
3 95 -0.00477496 0.0278902
3 96 -0.00295592 0.0273398
3 97 0.00271499 0.0242065
3 98 0.0172197 0.0171798
3 99 0.0492002 0.00718638
3 100 0.1 0
4 0 0 0
4 1 -1.11078e-005 -9.17949e-006
4 2 -2.20717e-005 -1.65214e-005
4 3 -3.22134e-005 -2.02288e-005
4 4 -4.18143e-005 -1.9894e-005
4 5 -5.11212e-005 -1.54112e-005
4 6 -6.03081e-005 -6.76692e-006
4 7 -6.9491e-005 6.04549e-006
4 8 -7.87459e-005 2.30525e-005
4 9 -8.81193e-005 4.43023e-005
4 10 -9.76346e-005 6.98582e-005
4 11 -0.000107297 9.97909e-005
4 12 -0.000117095 0.00013417
4 13 -0.000127007 0.000173059
4 14 -0.000137002 0.000216509
4 15 -0.000147047 0.000264556
4 16 -0.000157102 0.000317221
4 17 -0.00016713 0.000374505
4 18 -0.000177096 0.000436394
4 19 -0.000186964 0.000502857
4 20 -0.000196707 0.000573846
4 21 -0.000206297 0.000649303
4 22 -0.000215714 0.000729155
4 23 -0.000224939 0.000813323
4 24 -0.00023396 0.000901717
4 25 -0.000242767 0.000994243
4 26 -0.000251354 0.0010908
4 27 -0.000259716 0.00119129
4 28 -0.000267855 0.00129561
4 29 -0.000275771 0.00140365
4 30 -0.000283469 0.00151532
4 31 -0.000290954 0.00163051
4 32 -0.000298234 0.00174912
4 33 -0.000305319 0.00187107
4 34 -0.00031222 0.00199625
4 35 -0.000318949 0.0021246
4 36 -0.00032552 0.00225602
4 37 -0.000331949 0.00239045
4 38 -0.000338255 0.00252782
4 39 -0.000344455 0.00266809
4 40 -0.000350572 0.00281119
4 41 -0.000356629 0.0029571
4 42 -0.000362653 0.00310579
4 43 -0.000368672 0.00325725
4 44 -0.000374717 0.00341148
4 45 -0.000380823 0.00356849
4 46 -0.000387029 0.00372833
4 47 -0.000393375 0.00389103
4 48 -0.000399908 0.00405667
4 49 -0.000406678 0.00422534
4 50 -0.000413741 0.00439716
4 51 -0.000421157 0.00457226
4 52 -0.000428993 0.00475081
4 53 -0.000437324 0.00493302
4 54 -0.000446231 0.00511912
4 55 -0.000455806 0.00530937
4 56 -0.000466147 0.0055041
4 57 -0.000477365 0.00570365
4 58 -0.000489586 0.00590844
4 59 -0.000502944 0.00611894
4 60 -0.000517595 0.00633565
4 61 -0.000533709 0.00655919
4 62 -0.000551478 0.00679021
4 63 -0.000571119 0.00702947
4 64 -0.000592875 0.00727782
4 65 -0.00061702 0.0075362
4 66 -0.000643864 0.00780568
4 67 -0.000673762 0.00808745
4 68 -0.000707113 0.00838287
4 69 -0.000744376 0.00869343
4 70 -0.000786074 0.00902083
4 71 -0.000832807 0.00936695
4 72 -0.000885267 0.00973394
4 73 -0.000944249 0.0101242
4 74 -0.00101068 0.0105403
4 75 -0.00108561 0.0109853
4 76 -0.0011703 0.0114626
4 77 -0.00126618 0.011976
4 78 -0.00137493 0.0125295
4 79 -0.00149853 0.0131278
4 80 -0.00163927 0.0137762
4 81 -0.00179982 0.0144801
4 82 -0.00198329 0.0152457
4 83 -0.00219326 0.0160793
4 84 -0.00243378 0.0169875
4 85 -0.00270936 0.0179765
4 86 -0.0030247 0.0190515
4 87 -0.00338421 0.0202154
4 88 -0.00379091 0.0214662
4 89 -0.00424405 0.0227939
4 90 -0.00473427 0.0241729
4 91 -0.00523378 0.0255516
4 92 -0.00567611 0.0268335
4 93 -0.00591495 0.0278465
4 94 -0.00564035 0.0282989
4 95 -0.00421309 0.0277232
4 96 -0.00035622 0.0254479
4 97 0.00833856 0.0207229
4 98 0.0259068 0.0133298
4 99 0.057175 0.00513342
4 100 0.1 0
5 0 0 0
5 1 -1.32556e-005 -8.52156e-006
5 2 -2.77579e-005 -1.45327e-005
5 3 -4.21011e-005 -1.63247e-005
5 4 -5.61544e-005 -1.34735e-005
5 5 -6.99893e-005 -5.80794e-006
5 6 -8.37302e-005 6.73691e-006
5 7 -9.74962e-005 2.41998e-005
5 8 -0.000111382 4.66278e-005
5 9 -0.000125452 7.40848e-005
5 10 -0.00013974 0.000106649
5 11 -0.000154254 0.000144407
5 12 -0.00016898 0.000187441
5 13 -0.000183885 0.000235831
5 14 -0.000198924 0.000289639
5 15 -0.000214045 0.000348912
5 16 -0.000229192 0.000413679
5 17 -0.000244308 0.000483945
5 18 -0.000259337 0.000559697
5 19 -0.00027423 0.000640904
5 20 -0.000288941 0.000727514
5 21 -0.00030343 0.00081946
5 22 -0.000317665 0.000916661
5 23 -0.000331617 0.00101903
5 24 -0.000345265 0.00112645
5 25 -0.000358595 0.00123883
5 26 -0.000371596 0.00135604
5 27 -0.000384261 0.00147796
5 28 -0.00039659 0.00160448
5 29 -0.000408584 0.00173547
5 30 -0.00042025 0.00187082
5 31 -0.000431594 0.00201039
5 32 -0.000442628 0.00215408
5 33 -0.000453367 0.00230177
5 34 -0.000463825 0.00245336
5 35 -0.000474022 0.00260874
5 36 -0.000483978 0.00276782
5 37 -0.000493717 0.00293051
5 38 -0.000503266 0.00309673
5 39 -0.000512653 0.00326642
5 40 -0.00052191 0.00343951
5 41 -0.000531072 0.00361597
5 42 -0.000540178 0.00379575
5 43 -0.000549271 0.00397884
5 44 -0.000558397 0.00416524
5 45 -0.000567608 0.00435496
5 46 -0.00057696 0.00454803
5 47 -0.000586515 0.00474451
5 48 -0.00059634 0.00494447
5 49 -0.00060651 0.00514801
5 50 -0.000617107 0.00535525
5 51 -0.000628219 0.00556636
5 52 -0.000639947 0.00578152
5 53 -0.000652398 0.00600095
5 54 -0.000665691 0.00622491
5 55 -0.00067996 0.00645371
5 56 -0.000695348 0.00668769
5 57 -0.000712019 0.00692725
5 58 -0.000730149 0.00717284
5 59 -0.000749937 0.00742497
5 60 -0.000771603 0.00768423
5 61 -0.000795394 0.00795127
5 62 -0.000821583 0.00822681
5 63 -0.000850477 0.00851168
5 64 -0.00088242 0.00880679
5 65 -0.000917798 0.00911318
5 66 -0.000957046 0.00943198
5 67 -0.00100065 0.00976447
5 68 -0.00104918 0.0101121
5 69 -0.00110324 0.0104763
5 70 -0.00116356 0.0108591
5 71 -0.00123094 0.0112622
5 72 -0.00130631 0.0116878
5 73 -0.00139071 0.0121383
5 74 -0.00148534 0.0126164
5 75 -0.00159158 0.0131248
5 76 -0.00171098 0.0136668
5 77 -0.00184533 0.0142456
5 78 -0.00199665 0.0148651
5 79 -0.00216724 0.015529
5 80 -0.00235969 0.0162415
5 81 -0.00257688 0.0170064
5 82 -0.00282196 0.0178278
5 83 -0.00309824 0.0187091
5 84 -0.00340903 0.0196525
5 85 -0.00375724 0.0206585
5 86 -0.00414465 0.0217242
5 87 -0.00457054 0.0228416
5 88 -0.00502922 0.0239939
5 89 -0.00550547 0.0251507
5 90 -0.00596625 0.02626
5 91 -0.00634548 0.0272366
5 92 -0.0065164 0.0279452
5 93 -0.00624146 0.0281779
5 94 -0.00508418 0.0276307
5 95 -0.00226194 0.025895
5 96 0.0035713 0.0225106
5 97 0.0145561 0.0171806
5 98 0.033577 0.0102997
5 99 0.0631086 0.00374551
5 100 0.1 0
6 0 0 0
6 1 -1.65107e-005 -7.71491e-006
6 2 -3.53114e-005 -1.20421e-005
6 3 -5.44867e-005 -1.13837e-005
6 4 -7.36276e-005 -5.41777e-006
6 5 -9.26594e-005 6.01284e-006
6 6 -0.000111652 2.29852e-005
6 7 -0.000130721 4.55536e-005
6 8 -0.000149972 7.37786e-005
6 9 -0.000169487 0.000107736
6 10 -0.00018931 0.000147515
6 11 -0.000209453 0.000193214
6 12 -0.000229896 0.000244929
6 13 -0.000250596 0.000302748
6 14 -0.000271491 0.000366745
6 15 -0.000292511 0.000436976
6 16 -0.000313576 0.000513476
6 17 -0.00033461 0.000596256
6 18 -0.000355536 0.000685304
6 19 -0.000376282 0.000780588
6 20 -0.000396786 0.000882053
6 21 -0.00041699 0.000989628
6 22 -0.000436849 0.00110322
6 23 -0.000456322 0.00122274
6 24 -0.00047538 0.00134806
6 25 -0.000494 0.00147905
6 26 -0.000512165 0.00161561
6 27 -0.000529867 0.00175757
6 28 -0.000547103 0.00190482
6 29 -0.000563874 0.00205721
6 30 -0.000580186 0.00221459
6 31 -0.000596051 0.00237685
6 32 -0.000611483 0.00254383
6 33 -0.0006265 0.00271542
6 34 -0.000641125 0.00289148
6 35 -0.000655381 0.0030719
6 36 -0.000669299 0.00325657
6 37 -0.00068291 0.00344538
6 38 -0.000696249 0.00363825
6 39 -0.000709357 0.00383509
6 40 -0.000722277 0.00403583
6 41 -0.000735057 0.00424042
6 42 -0.000747751 0.0044488
6 43 -0.000760416 0.00466096
6 44 -0.000773117 0.00487689
6 45 -0.000785923 0.00509659
6 46 -0.000798911 0.00532008
6 47 -0.000812165 0.00554744
6 48 -0.000825777 0.00577871
6 49 -0.000839848 0.00601402
6 50 -0.000854489 0.00625349
6 51 -0.000869821 0.00649728
6 52 -0.000885976 0.00674558
6 53 -0.000903101 0.00699864
6 54 -0.000921355 0.00725671
6 55 -0.000940917 0.00752012
6 56 -0.000961979 0.00778924
6 57 -0.000984756 0.00806447
6 58 -0.00100949 0.00834629
6 59 -0.00103643 0.00863524
6 60 -0.00106588 0.00893192
6 61 -0.00109815 0.00923699
6 62 -0.00113361 0.00955122
6 63 -0.00117265 0.00987545
6 64 -0.00121572 0.0102106
6 65 -0.00126331 0.0105577
6 66 -0.00131597 0.010918
6 67 -0.00137434 0.0112926
6 68 -0.0014391 0.011683
6 69 -0.00151104 0.0120907
6 70 -0.00159103 0.0125175
6 71 -0.00168006 0.012965
6 72 -0.00177925 0.0134354
6 73 -0.00188984 0.0139308
6 74 -0.00201323 0.0144535
6 75 -0.00215098 0.015006
6 76 -0.00230485 0.0155908
6 77 -0.00247677 0.0162108
6 78 -0.00266888 0.0168684
6 79 -0.00288347 0.0175664
6 80 -0.00312302 0.0183071
6 81 -0.00339001 0.0190923
6 82 -0.00368686 0.019923
6 83 -0.00401562 0.0207988
6 84 -0.00437746 0.021717
6 85 -0.00477191 0.0226716
6 86 -0.00519544 0.0236513
6 87 -0.00563918 0.0246372
6 88 -0.00608496 0.0255989
6 89 -0.00649876 0.0264894
6 90 -0.00681959 0.0272378
6 91 -0.0069409 0.0277392
6 92 -0.00667958 0.0278436
6 93 -0.00572594 0.0273444
6 94 -0.00356626 0.0259765
6 95 0.000625363 0.0234407
6 96 0.0081065 0.0194932
6 97 0.0206082 0.014154
6 98 0.040058 0.00806377
6 99 0.0676065 0.00281631
6 100 0.1 0
7 0 0 0
7 1 -2.10223e-005 -6.84282e-006
7 2 -4.50711e-005 -9.31037e-006
7 3 -6.98258e-005 -5.89609e-006
7 4 -9.47245e-005 3.56655e-006
7 5 -0.000119604 1.91654e-005
7 6 -0.0001445 4.09513e-005
7 7 -0.000169528 6.89709e-005
7 8 -0.000194811 0.000103284
7 9 -0.000220444 0.000143971
7 10 -0.000246485 0.000191125
7 11 -0.000272949 0.000244851
7 12 -0.000299811 0.000305252
7 13 -0.000327017 0.000372424
7 14 -0.000354489 0.000446449
7 15 -0.000382133 0.000527389
7 16 -0.00040985 0.000615284
7 17 -0.000437537 0.000710147
7 18 -0.000465095 0.000811971
7 19 -0.000492429 0.00092072
7 20 -0.000519456 0.00103634
7 21 -0.0005461 0.00115875
7 22 -0.000572299 0.00128786
7 23 -0.000598001 0.00142356
7 24 -0.000623163 0.00156572
7 25 -0.000647754 0.0017142
7 26 -0.000671753 0.00186888
7 27 -0.000695144 0.00202959
7 28 -0.000717923 0.00219618
7 29 -0.000740091 0.00236851
7 30 -0.000761655 0.00254641
7 31 -0.000782628 0.00272974
7 32 -0.000803028 0.00291834
7 33 -0.000822878 0.00311207
7 34 -0.000842206 0.00331079
7 35 -0.000861044 0.00351436
7 36 -0.000879429 0.00372265
7 37 -0.000897402 0.00393556
7 38 -0.000915009 0.00415297
7 39 -0.000932302 0.00437479
7 40 -0.000949337 0.00460093
7 41 -0.000966175 0.00483133
7 42 -0.000982886 0.00506593
7 43 -0.000999544 0.00530469
7 44 -0.00101623 0.00554759
7 45 -0.00103304 0.00579463
7 46 -0.00105006 0.00604583
7 47 -0.00106741 0.00630124
7 48 -0.00108521 0.00656093
7 49 -0.00110357 0.00682499
7 50 -0.00112265 0.00709355
7 51 -0.0011426 0.00736676
7 52 -0.00116358 0.00764483
7 53 -0.00118579 0.00792798
7 54 -0.00120941 0.00821648
7 55 -0.00123468 0.00851065
7 56 -0.00126185 0.00881085
7 57 -0.00129116 0.0091175
7 58 -0.00132294 0.00943107
7 59 -0.00135749 0.00975208
7 60 -0.00139517 0.0100811
7 61 -0.00143639 0.0104189
7 62 -0.00148157 0.0107661
7 63 -0.00153122 0.0111235
7 64 -0.00158585 0.0114922
7 65 -0.00164607 0.0118729
7 66 -0.00171254 0.0122669
7 67 -0.00178599 0.0126754
7 68 -0.00186724 0.0130995
7 69 -0.00195719 0.0135408
7 70 -0.00205685 0.0140007
7 71 -0.00216734 0.0144808
7 72 -0.00228988 0.0149829
7 73 -0.00242585 0.0155086
7 74 -0.00257672 0.0160599
7 75 -0.00274415 0.0166386
7 76 -0.00292987 0.0172465
7 77 -0.00313577 0.0178852
7 78 -0.00336379 0.0185563
7 79 -0.00361588 0.0192607
7 80 -0.00389387 0.0199988
7 81 -0.00419931 0.0207698
7 82 -0.00453311 0.0215716
7 83 -0.00489503 0.0223996
7 84 -0.00528295 0.0232462
7 85 -0.00569148 0.024099
7 86 -0.00611003 0.0249394
7 87 -0.00651956 0.0257392
7 88 -0.00688747 0.026458
7 89 -0.00715956 0.0270377
7 90 -0.00724734 0.0273973
7 91 -0.0070082 0.0274262
7 92 -0.0062154 0.0269791
7 93 -0.0045141 0.025875
7 94 -0.00136235 0.02391
7 95 0.0040356 0.0208986
7 96 0.0127719 0.0167666
7 97 0.0261715 0.0117147
7 98 0.04547 0.00642838
7 99 0.071098 0.0021806
7 100 0.1 0
8 0 0 0
8 1 -2.68478e-005 -5.94902e-006
8 2 -5.7204e-005 -6.48471e-006
8 3 -8.83778e-005 -1.61879e-007
8 4 -0.000119754 1.30135e-005
8 5 -0.000151141 3.30289e-005
8 6 -0.000182574 5.98798e-005
8 7 -0.000214182 9.35831e-005
8 8 -0.000246112 0.000134184
8 9 -0.00027848 0.000181752
8 10 -0.000311357 0.000236381
8 11 -0.000344764 0.000298174
8 12 -0.000378674 0.000367235
8 13 -0.000413019 0.000443665
8 14 -0.000447706 0.000527549
8 15 -0.000482619 0.00061895
8 16 -0.000517634 0.000717913
8 17 -0.000552624 0.000824454
8 18 -0.000587462 0.000938563
8 19 -0.000622031 0.00106021
8 20 -0.000656225 0.00118932
8 21 -0.000689948 0.00132583
8 22 -0.000723119 0.00146964
8 23 -0.000755672 0.00162061
8 24 -0.000787551 0.00177863
8 25 -0.000818715 0.00194355
8 26 -0.000849134 0.0021152
8 27 -0.00087879 0.00229344
8 28 -0.000907673 0.00247809
8 29 -0.000935784 0.002669
8 30 -0.000963129 0.00286598
8 31 -0.000989725 0.00306887
8 32 -0.00101559 0.0032775
8 33 -0.00104076 0.00349172
8 34 -0.00106526 0.00371137
8 35 -0.00108913 0.0039363
8 36 -0.00111242 0.00416636
8 37 -0.00113517 0.00440143
8 38 -0.00115745 0.00464138
8 39 -0.00117932 0.00488611
8 40 -0.00120085 0.00513551
8 41 -0.00122211 0.0053895
8 42 -0.0012432 0.00564801
8 43 -0.00126419 0.00591099
8 44 -0.00128519 0.00617842
8 45 -0.00130632 0.00645027
8 46 -0.0013277 0.00672655
8 47 -0.00134944 0.00700731
8 48 -0.00137171 0.00729258
8 49 -0.00139466 0.00758247
8 50 -0.00141845 0.00787709
8 51 -0.00144329 0.00817658
8 52 -0.00146936 0.00848113
8 53 -0.0014969 0.00879094
8 54 -0.00152614 0.00910629
8 55 -0.00155736 0.00942747
8 56 -0.00159085 0.00975483
8 57 -0.00162693 0.0100888
8 58 -0.00166594 0.0104297
8 59 -0.00170828 0.0107782
8 60 -0.00175436 0.0111347
8 61 -0.00180465 0.0114999
8 62 -0.00185965 0.0118746
8 63 -0.00191994 0.0122594
8 64 -0.00198612 0.0126551
8 65 -0.00205887 0.0130627
8 66 -0.00213893 0.0134832
8 67 -0.00222714 0.0139175
8 68 -0.00232439 0.0143668
8 69 -0.00243166 0.0148323
8 70 -0.00255005 0.0153153
8 71 -0.00268073 0.0158169
8 72 -0.00282497 0.0163385
8 73 -0.00298416 0.0168813
8 74 -0.00315976 0.0174467
8 75 -0.0033533 0.0180356
8 76 -0.00356637 0.0186489
8 77 -0.00380053 0.0192872
8 78 -0.00405725 0.0199505
8 79 -0.00433774 0.0206381
8 80 -0.00464279 0.0213482
8 81 -0.00497241 0.0220774
8 82 -0.00532533 0.0228204
8 83 -0.00569829 0.023569
8 84 -0.00608487 0.0243109
8 85 -0.00647382 0.0250285
8 86 -0.00684647 0.0256972
8 87 -0.00717281 0.0262825
8 88 -0.0074056 0.0267373
8 89 -0.00747158 0.0269986
8 90 -0.00725841 0.0269835
8 91 -0.00659568 0.0265862
8 92 -0.00522848 0.0256783
8 93 -0.00278279 0.0241154
8 94 0.00127413 0.0217579
8 95 0.00766569 0.018516
8 96 0.0172985 0.0144299
8 97 0.031154 0.00978449
8 98 0.0499969 0.00521996
8 99 0.073872 0.00173288
8 100 0.1 0
9 0 0 0
9 1 -3.39935e-005 -5.05836e-006
9 2 -7.17697e-005 -3.65255e-006
9 3 -0.000110264 5.63004e-006
9 4 -0.000148881 2.26125e-005
9 5 -0.000187456 4.71676e-005
9 6 -0.000226055 7.92172e-005
9 7 -0.000264845 0.000118732
9 8 -0.000304004 0.000165726
9 9 -0.00034368 0.000220252
9 10 -0.000383962 0.00028239
9 11 -0.000424879 0.000352236
9 12 -0.000466401 0.000429891
9 13 -0.000508453 0.000515453
9 14 -0.000550923 0.000609005
9 15 -0.000593676 0.000710614
9 16 -0.00063656 0.000820319
9 17 -0.000679423 0.000938139
9 18 -0.000722112 0.00106406
9 19 -0.000764485 0.00119805
9 20 -0.00080641 0.00134005
9 21 -0.000847771 0.00148996
9 22 -0.000888468 0.00164768
9 23 -0.000928416 0.00181309
9 24 -0.000967547 0.00198605
9 25 -0.00100581 0.00216639
9 26 -0.00104316 0.00235396
9 27 -0.00107958 0.00254858
9 28 -0.00111506 0.00275008
9 29 -0.00114959 0.00295827
9 30 -0.00118317 0.00317297
9 31 -0.00121583 0.00339399
9 32 -0.0012476 0.00362117
9 33 -0.00127849 0.00385432
9 34 -0.00130856 0.00409327
9 35 -0.00133784 0.00433785
9 36 -0.0013664 0.00458792
9 37 -0.0013943 0.00484331
9 38 -0.00142159 0.0051039
9 39 -0.00144836 0.00536956
9 40 -0.00147468 0.00564017
9 41 -0.00150066 0.00591563
9 42 -0.00152639 0.00619587
9 43 -0.00155198 0.00648081
9 44 -0.00157756 0.00677041
9 45 -0.00160324 0.00706463
9 46 -0.00162918 0.00736348
9 47 -0.00165553 0.00766697
9 48 -0.00168247 0.00797513
9 49 -0.00171017 0.00828804
9 50 -0.00173885 0.0086058
9 51 -0.00176871 0.00892852
9 52 -0.0018 0.00925638
9 53 -0.00183298 0.00958957
9 54 -0.00186794 0.00992831
9 55 -0.00190518 0.0102729
9 56 -0.00194503 0.0106236
9 57 -0.00198787 0.0109808
9 58 -0.0020341 0.011345
9 59 -0.00208416 0.0117165
9 60 -0.00213852 0.0120958
9 61 -0.0021977 0.0124836
9 62 -0.00226227 0.0128804
9 63 -0.00233285 0.0132869
9 64 -0.00241013 0.0137037
9 65 -0.00249484 0.0141318
9 66 -0.00258778 0.0145718
9 67 -0.00268984 0.0150246
9 68 -0.00280195 0.0154912
9 69 -0.00292514 0.0159723
9 70 -0.00306051 0.016469
9 71 -0.00320923 0.016982
9 72 -0.00337253 0.0175123
9 73 -0.00355171 0.0180604
9 74 -0.00374805 0.018627
9 75 -0.00396287 0.0192122
9 76 -0.00419735 0.0198159
9 77 -0.00445254 0.0204376
9 78 -0.00472914 0.0210756
9 79 -0.00502732 0.0217276
9 80 -0.00534641 0.0223897
9 81 -0.00568443 0.0230562
9 82 -0.00603746 0.0237189
9 83 -0.00639862 0.0243663
9 84 -0.00675669 0.0249824
9 85 -0.00709405 0.0255458
9 86 -0.00738369 0.0260275
9 87 -0.00758488 0.0263895
9 88 -0.0076369 0.0265821
9 89 -0.00745018 0.0265417
9 90 -0.00689389 0.0261898
9 91 -0.00577911 0.0254321
9 92 -0.0038374 0.0241631
9 93 -0.000696035 0.0222768
9 94 0.00414455 0.0196904
9 95 0.0113177 0.0163857
9 96 0.0215551 0.0124718
9 97 0.0355687 0.00825936
9 98 0.0538104 0.00431207
9 99 0.0761225 0.0014083
9 100 0.1 0
10 0 0 0
10 1 -4.24352e-005 -4.18573e-006
10 2 -8.87602e-005 -8.67978e-007
10 3 -0.000135509 1.13577e-005
10 4 -0.000182162 3.21537e-005
10 5 -0.000228623 6.1275e-005
10 6 -0.000275022 9.856e-005
10 7 -0.000321583 0.000143921
10 8 -0.000368535 0.000197331
10 9 -0.000416061 0.000258815
10 10 -0.000464277 0.000328432
10 11 -0.000513222 0.000406264
10 12 -0.000562872 0.000492401
10 13 -0.000613142 0.000586934
10 14 -0.000663904 0.000689941
10 15 -0.000715001 0.000801483
10 16 -0.00076626 0.000921599
10 17 -0.000817499 0.0010503
10 18 -0.00086854 0.00118758
10 19 -0.000919213 0.00133339
10 20 -0.000969362 0.00148766
10 21 -0.00101885 0.00165031
10 22 -0.00106755 0.00182122
10 23 -0.00111537 0.00200026
10 24 -0.00116221 0.00218727
10 25 -0.00120802 0.0023821
10 26 -0.00125276 0.00258457
10 27 -0.00129637 0.0027945
10 28 -0.00133886 0.00301169
10 29 -0.0013802 0.00323595
10 30 -0.00142042 0.00346709
10 31 -0.00145953 0.00370491
10 32 -0.00149755 0.00394921
10 33 -0.00153452 0.00419981
10 34 -0.00157049 0.00445652
10 35 -0.0016055 0.00471915
10 36 -0.00163963 0.00498754
10 37 -0.00167294 0.00526152
10 38 -0.00170552 0.00554093
10 39 -0.00173743 0.00582564
10 40 -0.0017688 0.00611552
10 41 -0.00179971 0.00641044
10 42 -0.00183029 0.00671031
10 43 -0.00186067 0.00701504
10 44 -0.00189097 0.00732457
10 45 -0.00192137 0.00763885
10 46 -0.00195201 0.00795786
10 47 -0.00198308 0.00828158
10 48 -0.00201478 0.00861004
10 49 -0.00204731 0.00894328
10 50 -0.00208092 0.00928138
10 51 -0.00211584 0.00962444
10 52 -0.00215235 0.00997259
10 53 -0.00219075 0.010326
10 54 -0.00223135 0.0106848
10 55 -0.00227451 0.0110494
10 56 -0.00232059 0.0114198
10 57 -0.00237001 0.0117966
10 58 -0.00242322 0.0121799
10 59 -0.00248069 0.0125702
10 60 -0.00254295 0.012968
10 61 -0.00261056 0.0133736
10 62 -0.00268414 0.0137876
10 63 -0.00276435 0.0142105
10 64 -0.00285191 0.0146429
10 65 -0.0029476 0.0150854
10 66 -0.00305224 0.0155386
10 67 -0.00316673 0.0160032
10 68 -0.00329203 0.0164796
10 69 -0.00342913 0.0169686
10 70 -0.00357908 0.0174707
10 71 -0.00374299 0.0179863
10 72 -0.00392194 0.0185156
10 73 -0.00411703 0.0190587
10 74 -0.00432928 0.0196155
10 75 -0.00455958 0.0201853
10 76 -0.0048086 0.020767
10 77 -0.00507663 0.0213587
10 78 -0.00536338 0.0219576
10 79 -0.0056677 0.0225596
10 80 -0.00598718 0.023159
10 81 -0.00631754 0.023748
10 82 -0.00665184 0.024316
10 83 -0.00697932 0.0248489
10 84 -0.00728376 0.0253282
10 85 -0.00754116 0.0257296
10 86 -0.00771655 0.0260221
10 87 -0.00775945 0.0261662
10 88 -0.00759768 0.0261126
10 89 -0.00712891 0.0258013
10 90 -0.0062096 0.0251614
10 91 -0.004641 0.0241137
10 92 -0.00215304 0.0225767
10 93 0.00161155 0.0204798
10 94 0.00710655 0.0177855
10 95 0.0148729 0.0145251
10 96 0.0254909 0.0108439
10 97 0.0394688 0.00704706
10 98 0.0570526 0.00361747
10 99 0.0779822 0.00116665
10 100 0.1 0
11 0 0 0
11 1 -5.21304e-005 -3.34028e-006
11 2 -0.000108124 1.83477e-006
11 3 -0.000164072 1.69413e-005
11 4 -0.000219572 4.14948e-005
11 5 -0.000274628 7.51357e-005
11 6 -0.000329465 0.000117615
11 7 -0.000384384 0.000168781
11 8 -0.000439675 0.000228558
11 9 -0.000495571 0.000296933
11 10 -0.000552218 0.000373939
11 11 -0.000609677 0.000459636
11 12 -0.000667926 0.000554099
11 13 -0.000726876 0.000657406
11 14 -0.000786387 0.000769624
11 15 -0.000846281 0.000890808
11 16 -0.000906361 0.00102099
11 17 -0.000966418 0.00116018