Title= "LBM Lid Driven Flow"
VARIABLES="X","Y","U","V"
ZONE T="BOX",I=151,J=101,F=POINT
0 0 0 0
0 1 0 0
0 2 0 0
0 3 0 0
0 4 0 0
0 5 0 0
0 6 0 0
0 7 0 0
0 8 0 0
0 9 0 0
0 10 0 0
0 11 0 0
0 12 0 0
0 13 0 0
0 14 0 0
0 15 0 0
0 16 0 0
0 17 0 0
0 18 0 0
0 19 0 0
0 20 0 0
0 21 0 0
0 22 0 0
0 23 0 0
0 24 0 0
0 25 0 0
0 26 0 0
0 27 0 0
0 28 0 0
0 29 0 0
0 30 0 0
0 31 0 0
0 32 0 0
0 33 0 0
0 34 0 0
0 35 0 0
0 36 0 0
0 37 0 0
0 38 0 0
0 39 0 0
0 40 0 0
0 41 0 0
0 42 0 0
0 43 0 0
0 44 0 0
0 45 0 0
0 46 0 0
0 47 0 0
0 48 0 0
0 49 0 0
0 50 0 0
0 51 0 0
0 52 0 0
0 53 0 0
0 54 0 0
0 55 0 0
0 56 0 0
0 57 0 0
0 58 0 0
0 59 0 0
0 60 0 0
0 61 0 0
0 62 0 0
0 63 0 0
0 64 0 0
0 65 0 0
0 66 0 0
0 67 0 0
0 68 0 0
0 69 0 0
0 70 0 0
0 71 0 0
0 72 0 0
0 73 0 0
0 74 0 0
0 75 0 0
0 76 0 0
0 77 0 0
0 78 0 0
0 79 0 0
0 80 0 0
0 81 0 0
0 82 0 0
0 83 0 0
0 84 0 0
0 85 0 0
0 86 0 0
0 87 0 0
0 88 0 0
0 89 0 0
0 90 0 0
0 91 0 0
0 92 0 0
0 93 0 0
0 94 0 0
0 95 0 0
0 96 0 0
0 97 0 0
0 98 0 0
0 99 0 0
0 100 0.1 0
1 0 0 0
1 1 4.38416e-006 2.95367e-006
1 2 6.26341e-006 3.42838e-006
1 3 6.94036e-006 2.2365e-006
1 4 7.00655e-006 5.37326e-007
1 5 6.71534e-006 -9.8238e-007
1 6 6.19697e-006 -1.88712e-006
1 7 5.5261e-006 -1.8848e-006
1 8 4.75014e-006 -7.73097e-007
1 9 3.90151e-006 1.58984e-006
1 10 3.00358e-006 5.30275e-006
1 11 2.07376e-006 1.04325e-005
1 12 1.12538e-006 1.70216e-005
1 13 1.68723e-007 2.50941e-005
1 14 -7.88195e-007 3.46591e-005
1 15 -1.73913e-006 4.57145e-005
1 16 -2.67921e-006 5.82492e-005
1 17 -3.6047e-006 7.22452e-005
1 18 -4.51272e-006 8.76792e-005
1 19 -5.40109e-006 0.000104524
1 20 -6.26818e-006 0.000122748
1 21 -7.1128e-006 0.00014232
1 22 -7.93407e-006 0.000163204
1 23 -8.73139e-006 0.000185365
1 24 -9.50436e-006 0.000208766
1 25 -1.02527e-005 0.00023337
1 26 -1.09764e-005 0.00025914
1 27 -1.16754e-005 0.000286037
1 28 -1.23498e-005 0.000314026
1 29 -1.29999e-005 0.000343068
1 30 -1.36258e-005 0.000373126
1 31 -1.42282e-005 0.000404164
1 32 -1.48074e-005 0.000436147
1 33 -1.53641e-005 0.000469039
1 34 -1.58992e-005 0.000502808
1 35 -1.64136e-005 0.00053742
1 36 -1.69084e-005 0.000572846
1 37 -1.73848e-005 0.000609057
1 38 -1.78445e-005 0.000646026
1 39 -1.8289e-005 0.000683728
1 40 -1.87203e-005 0.000722143
1 41 -1.91405e-005 0.000761252
1 42 -1.95521e-005 0.000801041
1 43 -1.99578e-005 0.000841498
1 44 -2.03606e-005 0.000882619
1 45 -2.07637e-005 0.000924401
1 46 -2.11709e-005 0.000966849
1 47 -2.15862e-005 0.00100997
1 48 -2.20141e-005 0.00105379
1 49 -2.24595e-005 0.00109832
1 50 -2.29277e-005 0.00114361
1 51 -2.34248e-005 0.00118968
1 52 -2.39573e-005 0.00123659
1 53 -2.45323e-005 0.00128441
1 54 -2.51578e-005 0.0013332
1 55 -2.58425e-005 0.00138305
1 56 -2.65962e-005 0.00143407
1 57 -2.74296e-005 0.00148636
1 58 -2.83546e-005 0.00154006
1 59 -2.93845e-005 0.00159533
1 60 -3.05342e-005 0.00165235
1 61 -3.18203e-005 0.0017113
1 62 -3.32615e-005 0.00177242
1 63 -3.48787e-005 0.00183597
1 64 -3.66958e-005 0.00190224
1 65 -3.87398e-005 0.00197156
1 66 -4.10414e-005 0.00204431
1 67 -4.36357e-005 0.00212092
1 68 -4.65633e-005 0.00220187
1 69 -4.98704e-005 0.00228771
1 70 -5.36111e-005 0.00237908
1 71 -5.7848e-005 0.00247669
1 72 -6.26544e-005 0.00258138
1 73 -6.81164e-005 0.00269408
1 74 -7.43357e-005 0.00281588
1 75 -8.14331e-005 0.00294805
1 76 -8.95533e-005 0.00309204
1 77 -9.88704e-005 0.00324956
1 78 -0.000109595 0.00342261
1 79 -0.000121986 0.00361353
1 80 -0.00013636 0.0038251
1 81 -0.000153111 0.00406065
1 82 -0.000172736 0.00432413
1 83 -0.000195862 0.00462037
1 84 -0.000223293 0.00495523
1 85 -0.000256071 0.00533591
1 86 -0.000295562 0.00577138
1 87 -0.000343583 0.00627287
1 88 -0.000402571 0.00685461
1 89 -0.000475835 0.00753483
1 90 -0.000567887 0.00833707
1 91 -0.000684857 0.00929188
1 92 -0.000834805 0.0104387
1 93 -0.00102722 0.0118271
1 94 -0.00126864 0.0135138
1 95 -0.00154208 0.0155425
1 96 -0.00171813 0.0178591
1 97 -0.00118577 0.0199843
1 98 0.00255873 0.0197831
1 99 0.0252537 0.00995897
1 100 0.1 0
2 0 0 0
2 1 8.06416e-006 3.65005e-006
2 2 1.25951e-005 4.91456e-006
2 3 1.44549e-005 4.22832e-006
2 4 1.46431e-005 2.86197e-006
2 5 1.37483e-005 1.8307e-006
2 6 1.21221e-005 1.88608e-006
2 7 9.98676e-006 3.57647e-006
2 8 7.49149e-006 7.302e-006
2 9 4.74188e-006 1.33541e-005
2 10 1.8156e-006 2.1943e-005
2 11 -1.22852e-006 3.32163e-005
2 12 -4.34505e-006 4.72734e-005
2 13 -7.49854e-006 6.41754e-005
2 14 -1.06612e-005 8.39532e-005
2 15 -1.3811e-005 0.000106614
2 16 -1.6931e-005 0.000132145
2 17 -2.00077e-005 0.00016052
2 18 -2.30309e-005 0.0001917
2 19 -2.59926e-005 0.000225637
2 20 -2.88868e-005 0.000262276
2 21 -3.17091e-005 0.000301556
2 22 -3.44561e-005 0.000343414
2 23 -3.71255e-005 0.000387781
2 24 -3.97156e-005 0.000434589
2 25 -4.22255e-005 0.000483765
2 26 -4.46545e-005 0.000535239
2 27 -4.70026e-005 0.000588936
2 28 -4.927e-005 0.000644785
2 29 -5.14572e-005 0.000702713
2 30 -5.35653e-005 0.000762648
2 31 -5.55956e-005 0.00082452
2 32 -5.75497e-005 0.000888258
2 33 -5.94299e-005 0.000953796
2 34 -6.12388e-005 0.00102107
2 35 -6.29795e-005 0.00109001
2 36 -6.46556e-005 0.00116056
2 37 -6.62715e-005 0.00123267
2 38 -6.78321e-005 0.00130628
2 39 -6.93429e-005 0.00138134
2 40 -7.08104e-005 0.00145782
2 41 -7.22417e-005 0.00153568
2 42 -7.36448e-005 0.00161488
2 43 -7.50287e-005 0.00169542
2 44 -7.64032e-005 0.00177726
2 45 -7.77795e-005 0.00186043
2 46 -7.91695e-005 0.00194491
2 47 -8.05867e-005 0.00203073
2 48 -8.20459e-005 0.00211793
2 49 -8.35632e-005 0.00220654
2 50 -8.51564e-005 0.00229664
2 51 -8.68451e-005 0.00238829
2 52 -8.86508e-005 0.0024816
2 53 -9.05972e-005 0.00257669
2 54 -9.27103e-005 0.00267369
2 55 -9.50189e-005 0.00277276
2 56 -9.75548e-005 0.00287411
2 57 -0.000100353 0.00297795
2 58 -0.000103453 0.00308455
2 59 -0.000106897 0.00319418
2 60 -0.000110735 0.00330719
2 61 -0.00011502 0.00342395
2 62 -0.000119812 0.0035449
2 63 -0.000125181 0.00367053
2 64 -0.000131201 0.00380137
2 65 -0.000137962 0.00393806
2 66 -0.00014556 0.00408131
2 67 -0.000154109 0.0042319
2 68 -0.000163738 0.00439075
2 69 -0.000174594 0.00455888
2 70 -0.000186848 0.00473743
2 71 -0.000200697 0.00492774
2 72 -0.000216372 0.0051313
2 73 -0.000234141 0.00534983
2 74 -0.000254321 0.00558527
2 75 -0.000277283 0.00583987
2 76 -0.000303471 0.00611622
2 77 -0.000333416 0.00641728
2 78 -0.000367752 0.00674649
2 79 -0.00040725 0.00710788
2 80 -0.000452848 0.00750609
2 81 -0.000505696 0.00794661
2 82 -0.000567219 0.00843586
2 83 -0.000639187 0.00898144
2 84 -0.000723824 0.00959235
2 85 -0.000823941 0.0102793
2 86 -0.000943111 0.0110549
2 87 -0.00108589 0.0119345
2 88 -0.0012581 0.0129357
2 89 -0.00146708 0.0140792
2 90 -0.00172182 0.0153882
2 91 -0.00203253 0.0168863
2 92 -0.00240829 0.0185922
2 93 -0.00284893 0.0205056
2 94 -0.00331967 0.0225718
2 95 -0.00367258 0.0245961
2 96 -0.00340454 0.0260437
2 97 -0.000917077 0.0256373
2 98 0.00857555 0.0208654
2 99 0.0385429 0.0098332
2 100 0.1 0
3 0 0 0
3 1 1.11346e-005 3.97894e-006
3 2 1.80284e-005 6.04367e-006
3 3 2.10122e-005 6.60061e-006
3 4 2.11738e-005 6.80059e-006
3 5 1.93172e-005 7.69786e-006
3 6 1.60077e-005 1.01708e-005
3 7 1.16432e-005 1.49178e-005
3 8 6.5098e-006 2.24803e-005
3 9 8.19235e-007 3.32708e-005
3 10 -5.26796e-006 4.7598e-005
3 11 -1.16276e-005 6.56871e-005
3 12 -1.81621e-005 8.76955e-005
3 13 -2.47947e-005 0.000113726
3 14 -3.1464e-005 0.000143838
3 15 -3.81215e-005 0.000178055
3 16 -4.47289e-005 0.000216371
3 17 -5.12559e-005 0.000258758
3 18 -5.76789e-005 0.000305168
3 19 -6.39795e-005 0.000355541
3 20 -7.01437e-005 0.000409804
3 21 -7.61607e-005 0.000467876
3 22 -8.20226e-005 0.000529667
3 23 -8.77234e-005 0.000595085
3 24 -9.32591e-005 0.000664031
3 25 -9.86268e-005 0.000736406
3 26 -0.000103825 0.000812107
3 27 -0.000108853 0.000891031
3 28 -0.00011371 0.000973074
3 29 -0.000118399 0.00105813
3 30 -0.00012292 0.0011461
3 31 -0.000127277 0.00123688
3 32 -0.000131473 0.00133038
3 33 -0.000135513 0.00142648
3 34 -0.000139401 0.00152511
3 35 -0.000143145 0.00162616
3 36 -0.000146753 0.00172955
3 37 -0.000150233 0.0018352
3 38 -0.000153595 0.00194304
3 39 -0.000156853 0.002053
3 40 -0.000160018 0.002165
3 41 -0.000163107 0.00227902
3 42 -0.000166136 0.00239499
3 43 -0.000169124 0.0025129
3 44 -0.000172092 0.00263271
3 45 -0.000175063 0.00275444
3 46 -0.000178063 0.00287807
3 47 -0.00018112 0.00300365
3 48 -0.000184264 0.00313122
3 49 -0.00018753 0.00326084
3 50 -0.000190956 0.00339259
3 51 -0.000194581 0.00352658
3 52 -0.000198451 0.00366295
3 53 -0.000202616 0.00380187
3 54 -0.00020713 0.00394352
3 55 -0.000212053 0.00408814
3 56 -0.000217451 0.00423599
3 57 -0.000223396 0.00438738
3 58 -0.00022997 0.00454267
3 59 -0.000237261 0.00470226
3 60 -0.000245371 0.00486661
3 61 -0.000254408 0.00503624
3 62 -0.000264499 0.00521174
3 63 -0.000275781 0.00539379
3 64 -0.00028841 0.00558312
3 65 -0.000302564 0.00578059
3 66 -0.000318441 0.00598715
3 67 -0.000336268 0.00620387
3 68 -0.000356302 0.00643197
3 69 -0.000378837 0.00667281
3 70 -0.000404212 0.00692792
3 71 -0.000432815 0.00719903
3 72 -0.000465095 0.00748811
3 73 -0.000501575 0.00779735
3 74 -0.000542861 0.00812928
3 75 -0.000589664 0.00848672
3 76 -0.000642822 0.0088729
3 77 -0.000703322 0.00929149
3 78 -0.000772334 0.00974667
3 79 -0.000851254 0.0102432
3 80 -0.000941754 0.0107865
3 81 -0.00104584 0.0113828
3 82 -0.00116594 0.0120391
3 83 -0.00130497 0.0127634
3 84 -0.00146649 0.0135647
3 85 -0.00165476 0.0144531
3 86 -0.00187489 0.0154396
3 87 -0.00213289 0.0165356
3 88 -0.00243549 0.0177523
3 89 -0.00278963 0.0190986
3 90 -0.00320073 0.0205774
3 91 -0.00366848 0.0221782
3 92 -0.00417654 0.0238627
3 93 -0.00466774 0.0255361
3 94 -0.00498437 0.0269943
3 95 -0.00472482 0.0278285
3 96 -0.00290766 0.0272853
3 97 0.00275955 0.0241608
3 98 0.017257 0.0171458
3 99 0.0492233 0.00716801
3 100 0.1 0
4 0 0 0
4 1 1.36431e-005 4.35976e-006
4 2 2.2228e-005 7.42382e-006
4 3 2.58185e-005 9.68948e-006
4 4 2.55032e-005 1.22014e-005
4 5 2.22002e-005 1.59639e-005
4 6 1.66313e-005 2.18732e-005
4 7 9.35116e-006 3.06889e-005
4 8 7.85754e-007 4.3032e-005
4 9 -8.73467e-006 5.93965e-005
4 10 -1.89509e-005 8.01654e-005
4 11 -2.96573e-005 0.000105628
4 12 -4.06894e-005 0.000135992
4 13 -5.19154e-005 0.000171402
4 14 -6.3229e-005 0.000211945
4 15 -7.45451e-005 0.000257664
4 16 -8.57956e-005 0.000308564
4 17 -9.69263e-005 0.00036462
4 18 -0.000107894 0.000425782
4 19 -0.000118666 0.000491981
4 20 -0.000129216 0.000563131
4 21 -0.000139523 0.000639136
4 22 -0.000149572 0.000719886
4 23 -0.000159352 0.000805268
4 24 -0.000168855 0.00089516
4 25 -0.000178074 0.000989437
4 26 -0.000187006 0.00108797
4 27 -0.00019565 0.00119063
4 28 -0.000204005 0.00129729
4 29 -0.000212072 0.0014078
4 30 -0.000219854 0.00152206
4 31 -0.000227356 0.00163991
4 32 -0.000234584 0.00176124
4 33 -0.000241544 0.00188592
4 34 -0.000248246 0.00201384
4 35 -0.000254702 0.00214486
4 36 -0.000260924 0.00227889
4 37 -0.000266928 0.00241582
4 38 -0.000272731 0.00255555
4 39 -0.000278353 0.00269799
4 40 -0.000283818 0.00284306
4 41 -0.000289151 0.00299071
4 42 -0.00029438 0.00314086
4 43 -0.000299538 0.00329348
4 44 -0.00030466 0.00344855
4 45 -0.000309784 0.00360605
4 46 -0.000314955 0.00376599
4 47 -0.000320219 0.0039284
4 48 -0.000325628 0.00409334
4 49 -0.000331241 0.00426087
4 50 -0.000337118 0.0044311
4 51 -0.00034333 0.00460417
4 52 -0.000349952 0.00478023
4 53 -0.000357066 0.00495948
4 54 -0.000364762 0.00514216
4 55 -0.000373141 0.00532855
4 56 -0.000382313 0.00551896
4 57 -0.000392397 0.00571378
4 58 -0.000403529 0.00591343
4 59 -0.000415854 0.00611839
4 60 -0.000429538 0.00632922
4 61 -0.000444761 0.00654655
4 62 -0.000461726 0.00677108
4 63 -0.00048066 0.0070036
4 64 -0.000501816 0.00724501
4 65 -0.000525477 0.00749631
4 66 -0.000551963 0.00775861
4 67 -0.000581636 0.00803318
4 68 -0.000614905 0.00832141
4 69 -0.000652234 0.00862488
4 70 -0.000694152 0.00894534
4 71 -0.000741262 0.00928476
4 72 -0.000794259 0.00964533
4 73 -0.000853937 0.0100295
4 74 -0.000921215 0.01044
4 75 -0.000997155 0.0108799
4 76 -0.00108299 0.0113527
4 77 -0.00118014 0.0118621
4 78 -0.00129029 0.0124123
4 79 -0.00141538 0.0130081
4 80 -0.00155768 0.0136546
4 81 -0.00171983 0.0143575
4 82 -0.00190492 0.0151228
4 83 -0.0021165 0.0159569
4 84 -0.00235858 0.0168663
4 85 -0.00263564 0.0178573
4 86 -0.00295233 0.018935
4 87 -0.00331308 0.0201021
4 88 -0.00372086 0.0213568
4 89 -0.00417492 0.0226888
4 90 -0.00466594 0.0240726
4 91 -0.00516614 0.0254566
4 92 -0.00560917 0.0267441
4 93 -0.00584883 0.0277633
4 94 -0.00557542 0.0282223
4 95 -0.00415008 0.0276541
4 96 -0.000296554 0.0253877
4 97 0.00839231 0.0206734
4 98 0.0259501 0.0132939
4 99 0.0572004 0.00511457
4 100 0.1 0
5 0 0 0
5 1 1.54219e-005 4.86383e-006
5 2 2.48889e-005 9.17021e-006
5 3 2.83574e-005 1.3508e-005
5 4 2.69234e-005 1.88401e-005
5 5 2.1568e-005 2.61006e-005
5 6 1.31197e-005 3.61546e-005
5 7 2.25817e-006 4.97678e-005
5 8 -1.04655e-005 6.75925e-005
5 9 -2.46049e-005 9.01668e-005
5 10 -3.97979e-005 0.000117922
5 11 -5.57497e-005 0.000151192
5 12 -7.22198e-005 0.000190226
5 13 -8.90117e-005 0.000235201
5 14 -0.000105966 0.000286231
5 15 -0.000122951 0.000343377
5 16 -0.000139864 0.000406656
5 17 -0.000156619 0.000476048
5 18 -0.000173149 0.000551505
5 19 -0.0001894 0.000632951
5 20 -0.000205331 0.000720292
5 21 -0.000220908 0.00081342
5 22 -0.000236106 0.00091221
5 23 -0.000250906 0.00101653
5 24 -0.000265294 0.00112624
5 25 -0.00027926 0.00124119
5 26 -0.000292796 0.00136124
5 27 -0.0003059 0.00148622
5 28 -0.00031857 0.00161598
5 29 -0.000330807 0.00175037
5 30 -0.000342616 0.00188923
5 31 -0.000354001 0.00203241
5 32 -0.000364972 0.00217975
5 33 -0.00037554 0.0023311
5 34 -0.000385718 0.00248632
5 35 -0.000395523 0.00264526
5 36 -0.000404974 0.00280781
5 37 -0.000414094 0.00297382
5 38 -0.00042291 0.00314318
5 39 -0.000431452 0.00331578
5 40 -0.000439752 0.00349153
5 41 -0.000447851 0.00367035
5 42 -0.00045579 0.00385215
5 43 -0.000463616 0.0040369
5 44 -0.000471384 0.00422456
5 45 -0.00047915 0.0044151
5 46 -0.000486978 0.00460853
5 47 -0.00049494 0.00480489
5 48 -0.000503111 0.00500422
5 49 -0.000511577 0.00520661
5 50 -0.000520431 0.00541216
5 51 -0.000529773 0.00562103
5 52 -0.000539714 0.00583339
5 53 -0.000550377 0.00604947
5 54 -0.000561893 0.00626952
5 55 -0.000574408 0.00649386
5 56 -0.000588083 0.00672285
5 57 -0.000603094 0.0069569
5 58 -0.000619633 0.00719649
5 59 -0.000637915 0.00744216
5 60 -0.000658174 0.00769451
5 61 -0.000680673 0.00795425
5 62 -0.000705701 0.00822215
5 63 -0.000733579 0.00849908
5 64 -0.000764666 0.008786
5 65 -0.000799362 0.00908401
5 66 -0.000838115 0.00939432
5 67 -0.000881429 0.00971825
5 68 -0.000929867 0.0100573
5 69 -0.000984068 0.0104132
5 70 -0.00104475 0.0107876
5 71 -0.00111273 0.0111827
5 72 -0.00118893 0.0116006
5 73 -0.0012744 0.0120439
5 74 -0.00137033 0.0125151
5 75 -0.00147809 0.0130173
5 76 -0.00159922 0.0135537
5 77 -0.00173548 0.0141277
5 78 -0.00188889 0.014743
5 79 -0.00206171 0.0154036
5 80 -0.00225649 0.0161136
5 81 -0.00247608 0.0168769
5 82 -0.00272357 0.0176977
5 83 -0.00300225 0.0185791
5 84 -0.00331536 0.0195235
5 85 -0.00366578 0.0205313
5 86 -0.00405523 0.0215998
5 87 -0.00448297 0.0227205
5 88 -0.00494329 0.0238769
5 89 -0.00542097 0.0250383
5 90 -0.005883 0.0261528
5 91 -0.00626337 0.0271351
5 92 -0.00643544 0.0278499
5 93 -0.00616188 0.0280894
5 94 -0.00500654 0.0275496
5 95 -0.00218731 0.0258223
5 96 0.00364099 0.0224477
5 97 0.0146176 0.0171296
5 98 0.0336251 0.0102633
5 99 0.0631359 0.0037266
5 100 0.1 0
6 0 0 0
6 1 1.62917e-005 5.47462e-006
6 2 2.5735e-005 1.12321e-005
6 3 2.82493e-005 1.793e-005
6 4 2.4947e-005 2.64487e-005
6 5 1.68496e-005 3.76466e-005
6 6 4.85815e-006 5.23371e-005
6 7 -1.02519e-005 7.1261e-005
6 8 -2.78239e-005 9.50694e-005
6 9 -4.7306e-005 0.000124315
6 10 -6.82364e-005 0.000159454
6 11 -9.023e-005 0.000200847
6 12 -0.000112966 0.000248771
6 13 -0.000136178 0.000303427
6 14 -0.000159647 0.000364951
6 15 -0.000183192 0.000433417
6 16 -0.000206664 0.000508854
6 17 -0.000229945 0.000591249
6 18 -0.000252936 0.000680553
6 19 -0.00027556 0.00077669
6 20 -0.000297756 0.000879558
6 21 -0.000319475 0.000989038
6 22 -0.000340679 0.00110499
6 23 -0.000361339 0.00122728
6 24 -0.000381433 0.00135574
6 25 -0.000400944 0.0014902
6 26 -0.000419863 0.0016305
6 27 -0.000438182 0.00177646
6 28 -0.000455899 0.00192791
6 29 -0.000473015 0.00208465
6 30 -0.000489534 0.00224653
6 31 -0.000505463 0.00241335
6 32 -0.000520814 0.00258495
6 33 -0.000535602 0.00276114
6 34 -0.000549844 0.00294177
6 35 -0.000563565 0.00312667
6 36 -0.00057679 0.00331569
6 37 -0.000589551 0.00350867
6 38 -0.000601884 0.00370549
6 39 -0.00061383 0.00390601
6 40 -0.000625436 0.00411012
6 41 -0.000636754 0.00431772
6 42 -0.000647843 0.00452873
6 43 -0.000658768 0.00474309
6 44 -0.0006696 0.00496073
6 45 -0.00068042 0.00518164
6 46 -0.000691315 0.00540582
6 47 -0.00070238 0.00563328
6 48 -0.000713721 0.00586408
6 49 -0.000725452 0.0060983
6 50 -0.0007377 0.00633606
6 51 -0.000750601 0.00657749
6 52 -0.000764306 0.0068228
6 53 -0.000778979 0.00707221
6 54 -0.000794797 0.007326
6 55 -0.000811958 0.00758449
6 56 -0.000830674 0.00784806
6 57 -0.000851182 0.00811714
6 58 -0.000873738 0.00839225
6 59 -0.000898626 0.00867394
6 60 -0.000926156 0.00896284
6 61 -0.000956673 0.00925969
6 62 -0.000990553 0.00956529
6 63 -0.00102822 0.00988052
6 64 -0.00107013 0.0102064
6 65 -0.0011168 0.010544
6 66 -0.00116882 0.0108946
6 67 -0.0012268 0.0112595
6 68 -0.00129147 0.0116401
6 69 -0.00136362 0.0120382
6 70 -0.00144413 0.0124555
6 71 -0.00153401 0.0128938
6 72 -0.00163436 0.0133553
6 73 -0.00174643 0.0138423
6 74 -0.00187162 0.0143571
6 75 -0.00201147 0.0149023
6 76 -0.00216772 0.0154806
6 77 -0.00234229 0.0160947
6 78 -0.00253726 0.0167473
6 79 -0.00275492 0.0174412
6 80 -0.00299765 0.0181787
6 81 -0.00326793 0.0189617
6 82 -0.0035681 0.0197912
6 83 -0.00390014 0.0206668
6 84 -0.00426516 0.0215857
6 85 -0.00466264 0.0225419
6 86 -0.005089 0.023524
6 87 -0.00553529 0.0245132
6 88 -0.00598335 0.0254789
6 89 -0.00639915 0.0263742
6 90 -0.00672176 0.0271278
6 91 -0.00684471 0.0276351
6 92 -0.00658508 0.0277459
6 93 -0.00563345 0.0272538
6 94 -0.00347654 0.0258937
6 95 0.0007109 0.0233668
6 96 0.00818545 0.0194297
6 97 0.0206767 0.0141028
6 98 0.0401105 0.00802743
6 99 0.0676357 0.00279752
6 100 0.1 0
7 0 0 0
7 1 1.61146e-005 6.15973e-006
7 2 2.45463e-005 1.35207e-005
7 3 2.52111e-005 2.27916e-005
7 4 1.92307e-005 3.47573e-005
7 5 7.65034e-006 5.01958e-005
7 6 -8.57904e-006 6.98575e-005
7 7 -2.861e-005 9.44415e-005
7 8 -5.16995e-005 0.000124577
7 9 -7.72032e-005 0.00016081
7 10 -0.000104568 0.000203601
7 11 -0.00013332 0.000253323
7 12 -0.00016306 0.000310268
7 13 -0.000193449 0.000374651
7 14 -0.000224205 0.000446621
7 15 -0.000255092 0.000526266
7 16 -0.000285915 0.00061362
7 17 -0.000316515 0.000708676
7 18 -0.000346761 0.000811386
7 19 -0.000376548 0.000921671
7 20 -0.000405791 0.00103942
7 21 -0.000434423 0.00116452
7 22 -0.000462392 0.00129681
7 23 -0.000489656 0.00143613
7 24 -0.000516184 0.00158232
7 25 -0.000541951 0.00173519
7 26 -0.000566943 0.00189455
7 27 -0.000591147 0.00206022
7 28 -0.00061456 0.00223198
7 29 -0.000637182 0.00240965
7 30 -0.000659016 0.00259302
7 31 -0.000680072 0.0027819
7 32 -0.000700364 0.00297608
7 33 -0.000719911 0.00317538
7 34 -0.000738736 0.00337961
7 35 -0.000756869 0.00358858
7 36 -0.000774343 0.00380211
7 37 -0.0007912 0.00402004
7 38 -0.000807486 0.00424222
7 39 -0.000823254 0.0044685
7 40 -0.000838566 0.00469874
7 41 -0.000853487 0.00493283
7 42 -0.000868095 0.00517067
7 43 -0.000882474 0.00541218
7 44 -0.000896716 0.00565729
7 45 -0.000910923 0.00590597
7 46 -0.000925209 0.00615821
7 47 -0.000939696 0.00641401
7 48 -0.00095452 0.00667343
7 49 -0.000969827 0.00693653
7 50 -0.000985779 0.00720341
7 51 -0.00100255 0.00747424
7 52 -0.00102033 0.00774919
7 53 -0.00103933 0.00802849
7 54 -0.00105978 0.00831242
7 55 -0.00108192 0.0086013
7 56 -0.00110602 0.00889552
7 57 -0.00113238 0.0091955
7 58 -0.00116132 0.00950175
7 59 -0.0011932 0.00981483
7 60 -0.00122839 0.0101354
7 61 -0.00126732 0.0104641
7 62 -0.00131045 0.0108018
7 63 -0.00135831 0.0111494
7 64 -0.00141144 0.0115077
7 65 -0.00147048 0.011878
7 66 -0.0015361 0.0122613
7 67 -0.00160906 0.0126589
7 68 -0.0016902 0.0130723
7 69 -0.00178043 0.0135028
7 70 -0.00188078 0.0139521
7 71 -0.00199237 0.0144219
7 72 -0.00211643 0.014914
7 73 -0.00225433 0.0154303
7 74 -0.00240754 0.0159726
7 75 -0.00257769 0.016543
7 76 -0.00276651 0.0171433
7 77 -0.00297583 0.0177754
7 78 -0.00320756 0.0184406
7 79 -0.00346361 0.0191401
7 80 -0.00374574 0.0198743
7 81 -0.00405544 0.0206424
7 82 -0.00439352 0.0214423
7 83 -0.0047597 0.0222695
7 84 -0.00515174 0.0231163
7 85 -0.0055642 0.0239704
7 86 -0.00598641 0.0248129
7 87 -0.00639928 0.0256158
7 88 -0.00677017 0.0263384
7 89 -0.0070449 0.0269226
7 90 -0.00713503 0.0272874
7 91 -0.00689809 0.0273222
7 92 -0.00610755 0.0268815
7 93 -0.00440894 0.0257844
7 94 -0.00126083 0.0238273
7 95 0.00413174 0.020825
7 96 0.0128598 0.0167035
7 97 0.0262469 0.011664
7 98 0.045527 0.00639247
7 99 0.0711292 0.00216201
7 100 0.1 0
8 0 0 0
8 1 1.47986e-005 6.88936e-006
8 2 2.1167e-005 1.59511e-005
8 3 1.90439e-005 2.79361e-005
8 4 9.53926e-006 4.35214e-005
8 5 -6.29438e-006 6.33979e-005
8 6 -2.7475e-005 8.82461e-005
8 7 -5.31021e-005 0.000118713
8 8 -8.23631e-005 0.000155391
8 9 -0.000114535 0.000198806
8 10 -0.000148981 0.000249408
8 11 -0.000185147 0.000307569
8 12 -0.000222556 0.000373584
8 13 -0.000260798 0.000447674
8 14 -0.000299526 0.000529994
8 15 -0.000338448 0.000620638
8 16 -0.000377319 0.000719645
8 17 -0.000415938 0.000827009
8 18 -0.000454137 0.000942682
8 19 -0.000491781 0.00106658
8 20 -0.00052876 0.0011986
8 21 -0.000564986 0.0013386
8 22 -0.000600389 0.00148643
8 23 -0.000634912 0.00164191
8 24 -0.000668514 0.00180486
8 25 -0.000701162 0.00197508
8 26 -0.000732833 0.00215238
8 27 -0.000763512 0.00233653
8 28 -0.000793191 0.00252732
8 29 -0.000821868 0.00272454
8 30 -0.000849547 0.00292797
8 31 -0.00087624 0.00313738
8 32 -0.000901961 0.00335256
8 33 -0.000926734 0.00357331
8 34 -0.000950588 0.0037994
8 35 -0.000973559 0.00403063
8 36 -0.000995689 0.00426682
8 37 -0.00101703 0.00450777
8 38 -0.00103763 0.0047533
8 39 -0.00105757 0.00500326
8 40 -0.00107692 0.00525748
8 41 -0.00109576 0.00551585
8 42 -0.00111418 0.00577823
8 43 -0.0011323 0.00604454
8 44 -0.00115021 0.00631469
8 45 -0.00116806 0.00658863
8 46 -0.00118598 0.00686633
8 47 -0.00120412 0.00714779
8 48 -0.00122264 0.00743303
8 49 -0.00124174 0.00772213
8 50 -0.00126159 0.00801517
8 51 -0.00128243 0.0083123
8 52 -0.00130447 0.00861367
8 53 -0.00132798 0.00891951
8 54 -0.00135322 0.00923007
8 55 -0.0013805 0.00954568
8 56 -0.00141014 0.00986669
8 57 -0.0014425 0.0101935
8 58 -0.00147795 0.0105266
8 59 -0.00151692 0.0108666
8 60 -0.00155987 0.011214
8 61 -0.00160728 0.0115695
8 62 -0.00165971 0.0119339
8 63 -0.00171775 0.012308
8 64 -0.00178204 0.0126926
8 65 -0.0018533 0.0130889
8 66 -0.0019323 0.0134977
8 67 -0.00201988 0.0139202
8 68 -0.00211698 0.0143578
8 69 -0.0022246 0.0148115
8 70 -0.00234383 0.0152828
8 71 -0.00247587 0.0157731
8 72 -0.002622 0.0162838
8 73 -0.00278358 0.0168161
8 74 -0.00296208 0.0173715
8 75 -0.00315901 0.0179512
8 76 -0.00337592 0.018556
8 77 -0.00361433 0.0191867
8 78 -0.00387566 0.0198433
8 79 -0.00416106 0.0205251
8 80 -0.00447125 0.0212305
8 81 -0.00480615 0.0219561
8 82 -0.0051644 0.0226966
8 83 -0.00554264 0.0234438
8 84 -0.00593435 0.0241854
8 85 -0.0063282 0.0249038
8 86 -0.00670541 0.0255741
8 87 -0.00703591 0.026162
8 88 -0.00727243 0.0266204
8 89 -0.00734173 0.0268859
8 90 -0.00713152 0.0268757
8 91 -0.00647158 0.026484
8 92 -0.00510725 0.0255823
8 93 -0.00266495 0.0240264
8 94 0.00138743 0.0216766
8 95 0.0077724 0.0184436
8 96 0.0173954 0.0143679
8 97 0.0312364 0.00973469
8 98 0.0500585 0.00518464
8 99 0.0739054 0.00171453
8 100 0.1 0
9 0 0 0
9 1 1.22914e-005 7.63987e-006
9 2 1.55019e-005 1.84527e-005
9 3 9.62272e-006 3.32298e-005
9 4 -4.27426e-006 5.25326e-005
9 5 -2.51479e-005 7.6959e-005
9 6 -5.20022e-005 0.000107114
9 7 -8.38996e-005 0.000143585
9 8 -0.000119973 0.00018692
9 9 -0.000159433 0.000237614
9 10 -0.00020157 0.000296094
9 11 -0.000245756 0.000362722
9 12 -0.00029144 0.000437784
9 13 -0.000338143 0.000521501
9 14 -0.000385455 0.000614026
9 15 -0.000433026 0.000715454
9 16 -0.000480562 0.000825826
9 17 -0.000527815 0.000945133
9 18 -0.000574582 0.00107333
9 19 -0.000620694 0.00121032
9 20 -0.000666012 0.001356
9 21 -0.000710427 0.00151022
9 22 -0.000753848 0.00167282
9 23 -0.000796204 0.00184361
9 24 -0.00083744 0.0020224
9 25 -0.000877513 0.00220898
9 26 -0.000916393 0.00240312
9 27 -0.000954059 0.00260461
9 28 -0.000990498 0.00281321
9 29 -0.00102571 0.00302868
9 30 -0.00105969 0.00325079
9 31 -0.00109245 0.0034793
9 32 -0.00112402 0.00371398
9 33 -0.00115442 0.00395458
9 34 -0.00118368 0.00420089
9 35 -0.00121185 0.00445268
9 36 -0.00123897 0.00470974
9 37 -0.00126511 0.00497185
9 38 -0.00129034 0.00523882
9 39 -0.00131473 0.00551048
9 40 -0.00133837 0.00578664
9 41 -0.00136137 0.00606716
9 42 -0.00138383 0.00635189
9 43 -0.00140589 0.00664073
9 44 -0.00142767 0.00693357
9 45 -0.00144934 0.00723035
9 46 -0.00147104 0.00753101
9 47 -0.00149297 0.00783554
9 48 -0.00151532 0.00814394
9 49 -0.0015383 0.00845626
9 50 -0.00156216 0.00877258
9 51 -0.00158712 0.009093
9 52 -0.00161349 0.00941768
9 53 -0.00164154 0.00974681
9 54 -0.0016716 0.0100806
9 55 -0.00170401 0.0104194
9 56 -0.00173916 0.0107635
9 57 -0.00177745 0.0111133
9 58 -0.00181933 0.0114692
9 59 -0.00186526 0.0118317
9 60 -0.00191578 0.0122013
9 61 -0.00197144 0.0125788
9 62 -0.00203285 0.0129647
9 63 -0.00210068 0.0133597
9 64 -0.00217565 0.0137648
9 65 -0.00225852 0.0141806
9 66 -0.00235013 0.0146081
9 67 -0.00245141 0.0150483
9 68 -0.00256331 0.0155021
9 69 -0.00268688 0.0159706
9 70 -0.00282325 0.0164547
9 71 -0.00297358 0.0169555
9 72 -0.00313913 0.0174738
9 73 -0.00332118 0.0180105
9 74 -0.003521 0.0185662
9 75 -0.00373988 0.0191412
9 76 -0.00397898 0.0197355
9 77 -0.00423927 0.0203486
9 78 -0.00452142 0.020979
9 79 -0.00482551 0.0216245
9 80 -0.00515078 0.0222811
9 81 -0.00549516 0.0229432
9 82 -0.00585461 0.0236027
9 83 -0.00622213 0.024248
9 84 -0.00658638 0.0248631
9 85 -0.00692965 0.0254267
9 86 -0.0072248 0.0259096
9 87 -0.00743103 0.0262737
9 88 -0.00748757 0.0264693
9 89 -0.00730488 0.0264328
9 90 -0.0067522 0.0260854
9 91 -0.00564081 0.0253329
9 92 -0.0037026 0.0240698
9 93 -0.000565344 0.0221901
9 94 0.0042698 0.0196112
9 95 0.0114352 0.0163151
9 96 0.0216612 0.0124112
9 97 0.0356584 0.00821064
9 98 0.0538771 0.0042774
9 99 0.0761584 0.00139019
9 100 0.1 0
10 0 0 0
10 1 8.57142e-006 8.39332e-006
10 2 7.50663e-006 2.09701e-005
10 3 -3.114e-006 3.8565e-005
10 4 -2.22835e-005 6.16206e-005
10 5 -4.89917e-005 9.06382e-005
10 6 -8.22444e-005 0.000126144
10 7 -0.000121082 0.00016866
10 8 -0.000164597 0.000218684
10 9 -0.000211943 0.000276671
10 10 -0.00026235 0.00034302
10 11 -0.00031512 0.000418071
10 12 -0.000369635 0.000502098
10 13 -0.000425352 0.00059531
10 14 -0.000481797 0.000697855
10 15 -0.000538565 0.000809822
10 16 -0.000595311 0.000931248
10 17 -0.000651743 0.00106212
10 18 -0.000707616 0.00120239
10 19 -0.000762729 0.00135196
10 20 -0.000816915 0.00151071
10 21 -0.000870037 0.00167849
10 22 -0.000921985 0.00185512
10 23 -0.000972671 0.00204042
10 24 -0.00102203 0.00223417
10 25 -0.00107 0.00243615
10 26 -0.00111654 0.00264613
10 27 -0.00116163 0.00286386
10 28 -0.00120525 0.0030891
10 29 -0.0012474 0.00332159
10 30 -0.00128807 0.00356109
10 31 -0.00132728 0.00380733
10 32 -0.00136504 0.00406007
10 33 -0.0014014 0.00431904
10 34 -0.00143638 0.004584
10 35 -0.00147003 0.00485472
10 36 -0.00150242 0.00513095
10 37 -0.00153361 0.00541247
10 38 -0.00156369 0.00569906
10 39 -0.00159274 0.00599052
10 40 -0.00162088 0.00628666
10 41 -0.00164821 0.0065873
10 42 -0.00167487 0.0068923
10 43 -0.001701 0.0072015
10 44 -0.00172676 0.0075148
10 45 -0.00175233 0.00783209
10 46 -0.0017779 0.00815332
10 47 -0.00180367 0.00847843
10 48 -0.00182988 0.00880742
10 49 -0.00185676 0.0091403
10 50 -0.00188459 0.00947712
10 51 -0.00191366 0.00981797
10 52 -0.00194427 0.010163
10 53 -0.00197677 0.0105123
10 54 -0.00201151 0.0108661
10 55 -0.0020489 0.0112247
10 56 -0.00208935 0.0115883
10 57 -0.00213333 0.0119572
10 58 -0.00218132 0.012332
10 59 -0.00223386 0.0127129
10 60 -0.00229151 0.0131005
10 61 -0.0023549 0.0134952
10 62 -0.00242469 0.0138977
10 63 -0.00250159 0.0143086
10 64 -0.00258636 0.0147284
10 65 -0.00267982 0.015158
10 66 -0.00278284 0.015598
10 67 -0.00289636 0.0160491
10 68 -0.00302135 0.016512
10 69 -0.00315886 0.0169875
10 70 -0.00330994 0.0174761
10 71 -0.00347571 0.0179784
10 72 -0.00365727 0.0184949
10 73 -0.0038557 0.0190257
10 74 -0.00407202 0.0195706
10 75 -0.00430707 0.0201293
10 76 -0.00456149 0.0207007
10 77 -0.00483551 0.0212829
10 78 -0.00512876 0.0218733
10 79 -0.00544002 0.0224679
10 80 -0.00576676 0.023061
10 81 -0.00610458 0.0236448
10 82 -0.00644643 0.0242088
10 83 -0.0067814 0.0247389
10 84 -0.00709312 0.0252165
10 85 -0.00735748 0.0256174
10 86 -0.00753937 0.0259105
10 87 -0.00758822 0.0260562
10 88 -0.0074318 0.026005
10 89 -0.00696779 0.025697
10 90 -0.00605276 0.0250611
10 91 -0.00448819 0.0240182
10 92 -0.00200437 0.0224867
10 93 0.00175539 0.020396
10 94 0.00724405 0.0177088
10 95 0.0150015 0.0144566
10 96 0.0256066 0.0107849
10 97 0.0395661 0.00699947
10 98 0.0571247 0.00358347
10 99 0.078021 0.0011488
10 100 0.1 0
11 0 0 0
11 1 3.64071e-006 9.1365e-006
11 2 -2.82187e-006 2.34615e-005
11 3 -1.91752e-005 4.38577e-005
11 4 -4.45015e-005 7.06503e-005
11 5 -7.784e-005 0.000104243
11 6 -0.000118214 0.00014508
11 7 -0.000164656 0.000193616
11 8 -0.000216227 0.000250294
11 9 -0.000272039 0.000315524
11 10 -0.000331266 0.00038967
11 11 -0.000393151 0.000473044
11 12 -0.000457013 0.0005659
11 13 -0.000522248 0.000668431
11 14 -0.000588323 0.000780774
11 15 -0.00065478 0.000903008
11 16 -0.000721221 0.00103516
11 17 -0.00078731 0.00117722
11 18 -0.000852763 0.00132911
11 19 -0.000917343 0.00149075