Title= "LBM Lid Driven Flow"
VARIABLES="X","Y","U","V"
ZONE T="BOX",I=101,J=101,F=POINT
0 0 0 0
0 1 0 0
0 2 0 0
0 3 0 0
0 4 0 0
0 5 0 0
0 6 0 0
0 7 0 0
0 8 0 0
0 9 0 0
0 10 0 0
0 11 0 0
0 12 0 0
0 13 0 0
0 14 0 0
0 15 0 0
0 16 0 0
0 17 0 0
0 18 0 0
0 19 0 0
0 20 0 0
0 21 0 0
0 22 0 0
0 23 0 0
0 24 0 0
0 25 0 0
0 26 0 0
0 27 0 0
0 28 0 0
0 29 0 0
0 30 0 0
0 31 0 0
0 32 0 0
0 33 0 0
0 34 0 0
0 35 0 0
0 36 0 0
0 37 0 0
0 38 0 0
0 39 0 0
0 40 0 0
0 41 0 0
0 42 0 0
0 43 0 0
0 44 0 0
0 45 0 0
0 46 0 0
0 47 0 0
0 48 0 0
0 49 0 0
0 50 0 0
0 51 0 0
0 52 0 0
0 53 0 0
0 54 0 0
0 55 0 0
0 56 0 0
0 57 0 0
0 58 0 0
0 59 0 0
0 60 0 0
0 61 0 0
0 62 0 0
0 63 0 0
0 64 0 0
0 65 0 0
0 66 0 0
0 67 0 0
0 68 0 0
0 69 0 0
0 70 0 0
0 71 0 0
0 72 0 0
0 73 0 0
0 74 0 0
0 75 0 0
0 76 0 0
0 77 0 0
0 78 0 0
0 79 0 0
0 80 0 0
0 81 0 0
0 82 0 0
0 83 0 0
0 84 0 0
0 85 0 0
0 86 0 0
0 87 0 0
0 88 0 0
0 89 0 0
0 90 0 0
0 91 0 0
0 92 0 0
0 93 0 0
0 94 0 0
0 95 0 0
0 96 0 0
0 97 0 0
0 98 0 0
0 99 0 0
0 100 0.1 0
1 0 0 0
1 1 2.60099e-006 2.49612e-006
1 2 5.65844e-006 -1.04822e-005
1 3 2.25526e-006 -4.58846e-006
1 4 6.63133e-006 1.66364e-006
1 5 4.09869e-006 -1.0905e-005
1 6 6.2328e-006 -8.03665e-006
1 7 4.82479e-006 4.23065e-006
1 8 8.72181e-006 -2.70322e-006
1 9 5.4107e-006 -1.06904e-005
1 10 8.22025e-006 5.29349e-006
1 11 7.47804e-006 1.13605e-005
1 12 1.03449e-005 -3.63388e-006
1 13 6.46676e-006 2.16229e-006
1 14 1.07383e-005 2.22112e-005
1 15 9.24088e-006 1.37878e-005
1 16 1.10615e-005 2.57297e-006
1 17 7.48433e-006 2.45983e-005
1 18 1.30862e-005 3.46693e-005
1 19 9.45089e-006 1.4784e-005
1 20 1.12498e-005 2.0393e-005
1 21 8.54765e-006 4.89082e-005
1 22 1.44813e-005 3.83007e-005
1 23 8.12637e-006 2.10914e-005
1 24 1.16282e-005 4.80568e-005
1 25 9.36058e-006 6.48804e-005
1 26 1.44514e-005 3.51679e-005
1 27 5.99883e-006 3.88786e-005
1 28 1.27961e-005 7.69012e-005
1 29 9.32235e-006 6.53936e-005
1 30 1.31281e-005 3.38746e-005
1 31 4.20147e-006 6.91731e-005
1 32 1.4841e-005 9.38181e-005
1 33 7.75103e-006 5.16917e-005
1 34 1.13896e-005 4.60847e-005
1 35 3.78007e-006 0.000103712
1 36 1.71058e-005 8.71727e-005
1 37 4.33807e-006 3.64749e-005
1 38 1.08339e-005 7.86773e-005
1 39 5.03934e-006 0.000124417
1 40 1.8368e-005 5.62319e-005
1 41 -2.10485e-007 4.06534e-005
1 42 1.32848e-005 0.000123879
1 43 6.94754e-006 0.000111205
1 44 1.76845e-005 1.92026e-005
1 45 -3.82763e-006 8.06361e-005
1 46 1.96835e-005 0.000155179
1 47 7.20012e-006 5.83383e-005
1 48 1.56763e-005 1.07111e-005
1 49 -3.71066e-006 0.00015024
1 50 2.88501e-005 0.000137934
1 51 3.49847e-006 -9.68983e-006
1 52 1.53805e-005 6.24673e-005
1 53 1.86209e-006 0.000210604
1 54 3.73128e-005 5.5381e-005
1 55 -4.2664e-006 -3.84414e-005
1 56 2.15728e-005 0.000173385
1 57 1.14331e-005 0.000202909
1 58 4.11901e-005 -6.4065e-005
1 59 -1.23611e-005 3.008e-005
1 60 3.83077e-005 0.000289245
1 61 1.976e-005 8.55443e-005
1 62 3.95656e-005 -0.000140317
1 63 -1.35812e-005 0.000212435
1 64 6.58031e-005 0.000312471
1 65 1.99569e-005 -0.000121215
1 66 3.74911e-005 -7.03561e-005
1 67 1.8316e-008 0.000442966
1 68 9.86012e-005 0.000147611
1 69 7.95375e-006 -0.000308477
1 70 4.70352e-005 0.000210053
1 71 3.2925e-005 0.000561669
1 72 0.000126595 -0.000228812
1 73 -1.23008e-005 -0.000288809
1 74 8.63269e-005 0.0006443
1 75 8.15428e-005 0.0003459
1 76 0.000139299 -0.000686528
1 77 -2.32257e-005 0.000143266
1 78 0.000176793 0.000960317
1 79 0.000128847 -0.000391353
1 80 0.000134615 -0.000849098
1 81 1.574e-005 0.00104129
1 82 0.000332249 0.000589521
1 83 0.00014081 -0.0015534
1 84 0.000142015 -7.93939e-005
1 85 0.000179538 0.00186765
1 86 0.000523139 -0.00119271
1 87 8.90469e-005 -0.00224733
1 88 0.000278181 0.0020221
1 89 0.000558033 0.00076224
1 90 0.000641188 -0.00456787
1 91 2.9018e-005 -0.000166761
1 92 0.000779141 0.0047804
1 93 0.00123054 -0.00568365
1 94 0.000761405 -0.0107023
1 95 4.52263e-005 0.00730206
1 96 0.00250578 0.00329849
1 97 0.00228916 -0.0236823
1 98 -0.00304264 0.033705
1 99 0.00729596 0.0123609
1 100 0.1 0
2 0 0 0
2 1 -1.38931e-005 2.06636e-006
2 2 2.68215e-005 2.2062e-005
2 3 -3.47573e-006 9.74622e-006
2 4 1.19702e-005 2.00569e-006
2 5 -1.0406e-005 2.36919e-005
2 6 1.22104e-005 4.77595e-005
2 7 -1.38541e-005 5.63211e-005
2 8 5.51749e-006 8.32068e-005
2 9 -1.76226e-005 0.00012912
2 10 6.04389e-006 0.000159197
2 11 -2.15628e-005 0.000184161
2 12 2.38677e-006 0.000239347
2 13 -2.38018e-005 0.000293327
2 14 4.31012e-006 0.000323261
2 15 -2.87323e-005 0.000369833
2 16 2.07381e-006 0.000442675
2 17 -2.88714e-005 0.000488494
2 18 4.67278e-006 0.000522734
2 19 -3.5497e-005 0.000592764
2 20 5.5429e-006 0.00066359
2 21 -3.34228e-005 0.000693614
2 22 7.07182e-006 0.000742531
2 23 -4.06755e-005 0.000825304
2 24 1.29216e-005 0.000872702
2 25 -3.83521e-005 0.000893285
2 26 1.24352e-005 0.00096349
2 27 -4.40435e-005 0.00103547
2 28 2.35338e-005 0.00104895
2 29 -4.43025e-005 0.00107822
2 30 2.13546e-005 0.00116238
2 31 -4.62785e-005 0.00119609
2 32 3.66516e-005 0.00118617
2 33 -5.23486e-005 0.00124237
2 34 3.43029e-005 0.00131414
2 35 -4.81661e-005 0.00129452
2 36 5.07811e-005 0.00129293
2 37 -6.36551e-005 0.00137629
2 38 5.29341e-005 0.00139742
2 39 -5.16781e-005 0.00133943
2 40 6.35178e-005 0.00138302
2 41 -7.73655e-005 0.00146124
2 42 7.92959e-005 0.00140516
2 43 -6.15784e-005 0.00135905
2 44 7.40284e-005 0.00145885
2 45 -8.98918e-005 0.00147287
2 46 0.000112866 0.00135619
2 47 -8.45236e-005 0.00138521
2 48 8.62019e-005 0.00149843
2 49 -9.74361e-005 0.00139869
2 50 0.00014832 0.00129528
2 51 -0.000125557 0.00142702
2 52 0.000109847 0.00146113
2 53 -0.000100414 0.00125937
2 54 0.000175741 0.0012718
2 55 -0.000183353 0.00145182
2 56 0.000158932 0.00131587
2 57 -0.000108294 0.00111356
2 58 0.000184262 0.0013036
2 59 -0.000245424 0.00139265
2 60 0.000245958 0.00107542
2 61 -0.000143762 0.00103367
2 62 0.000171241 0.00134827
2 63 -0.000285848 0.00118489
2 64 0.000370348 0.00081119
2 65 -0.000242467 0.00106076
2 66 0.000159078 0.0013034
2 67 -0.000272161 0.000814209
2 68 0.00049939 0.000635182
2 69 -0.00043767 0.00116151
2 70 0.00021444 0.00104303
2 71 -0.00019294 0.00035402
2 72 0.000549922 0.000658191
2 73 -0.000715966 0.00120918
2 74 0.00044946 0.000487399
2 75 -0.00011776 -7.72311e-006
2 76 0.000402421 0.000940044
2 77 -0.000945898 0.00100519
2 78 0.000966608 -0.000277529
2 79 -0.000286342 6.54344e-005
2 80 1.71551e-005 0.00142314
2 81 -0.000824457 0.000385672
2 82 0.00167443 -0.000780529
2 83 -0.00113485 0.00105791
2 84 -0.000268197 0.0018552
2 85 1.50841e-005 -0.00044813
2 86 0.00186265 0.00014583
2 87 -0.0029327 0.00343307
2 88 0.000646221 0.0019792
2 89 0.00156044 -0.000269971
2 90 -0.000388839 0.00449524
2 91 -0.00524181 0.00773354
2 92 0.00464761 0.00288108
2 93 0.00431508 0.00328509
2 94 -0.00807294 0.0151137
2 95 -0.00952923 0.0182916
2 96 0.0161802 0.0142548
2 97 -0.0174563 0.0408579
2 98 -0.0254401 0.0349955
2 99 0.0905269 0.000707916
2 100 0.1 0
3 0 0 0
3 1 -2.31746e-006 6.88352e-007
3 2 2.07333e-005 -6.48606e-006
3 3 1.10424e-005 1.39736e-006
3 4 -7.76088e-007 1.86231e-005
3 5 -1.98232e-005 4.20801e-005
3 6 -1.57789e-005 6.9528e-005
3 7 -3.60187e-005 0.000107199
3 8 -4.23247e-005 0.000164263
3 9 -5.23772e-005 0.000222119
3 10 -4.5249e-005 0.000277637
3 11 -6.85641e-005 0.000348921
3 12 -6.56842e-005 0.000431335
3 13 -7.0166e-005 0.000502944
3 14 -6.5802e-005 0.000579739
3 15 -9.03752e-005 0.000675112
3 16 -7.48839e-005 0.000765403
3 17 -8.06214e-005 0.000843857
3 18 -8.02277e-005 0.000939579
3 19 -9.96994e-005 0.00104375
3 20 -7.17322e-005 0.00112831
3 21 -8.64273e-005 0.0012129
3 22 -8.51057e-005 0.00131901
3 23 -9.40663e-005 0.00141308
3 24 -5.95268e-005 0.00148581
3 25 -8.84182e-005 0.00157623
3 26 -7.66366e-005 0.00167662
3 27 -7.52054e-005 0.00174567
3 28 -4.38584e-005 0.00180919
3 29 -8.62781e-005 0.00190082
3 30 -5.292e-005 0.00197591
3 31 -4.9669e-005 0.00201616
3 32 -3.06497e-005 0.00207848
3 33 -7.74925e-005 0.00215868
3 34 -1.52394e-005 0.00219292
3 35 -2.80566e-005 0.00221535
3 36 -2.22839e-005 0.00228141
3 37 -5.70205e-005 0.00232939
3 38 2.94928e-005 0.00232146
3 39 -2.16305e-005 0.00234756
3 40 -1.30249e-005 0.00240818
3 41 -2.11479e-005 0.00240326
3 42 6.70921e-005 0.00237365
3 43 -3.4612e-005 0.00242061
3 44 1.12595e-005 0.00244773
3 45 2.4316e-005 0.00238595
3 46 8.07367e-005 0.00237268
3 47 -5.57527e-005 0.00243345
3 48 6.38494e-005 0.00239071
3 49 5.86973e-005 0.00230052
3 50 6.41254e-005 0.00233808
3 51 -5.90016e-005 0.00236963
3 52 0.000141756 0.00223931
3 53 5.39208e-005 0.00218187
3 54 3.47449e-005 0.00226842
3 55 -1.93718e-005 0.0022032
3 56 0.000217815 0.00201765
3 57 -4.98915e-006 0.00206043
3 58 3.31184e-005 0.00213081
3 59 6.43393e-005 0.0019173
3 60 0.000251404 0.00177323
3 61 -9.95017e-005 0.00193704
3 62 0.000102903 0.00186601
3 63 0.000157109 0.00152831
3 64 0.000214489 0.00156043
3 65 -0.000173523 0.00175798
3 66 0.00026249 0.0014149
3 67 0.000195062 0.00110425
3 68 0.000118124 0.00140183
3 69 -0.000152565 0.00140654
3 70 0.000484229 0.000768929
3 71 0.0001065 0.000763489
3 72 2.45109e-005 0.00123415
3 73 2.07644e-005 0.000739032
3 74 0.000682867 4.53225e-005
3 75 -0.000163063 0.00063664
3 76 3.87613e-005 0.000870429
3 77 0.00034004 -0.00029056
3 78 0.000695604 -0.000423066
3 79 -0.000607277 0.000773079
3 80 0.000284136 5.56372e-005
3 81 0.000647998 -0.00136311
3 82 0.000265486 -4.5949e-005
3 83 -0.00105759 0.00099224
3 84 0.00085399 -0.00125819
3 85 0.00043895 -0.00140222
3 86 -0.000878339 0.00182093
3 87 -0.00107578 0.000763738
3 88 0.00179264 -0.00240471
3 89 -0.00126333 0.00156234
3 90 -0.00313838 0.00515426
3 91 -0.00077023 -0.000717826
3 92 0.00351546 -0.00135522
3 93 -0.00394031 0.0109266
3 94 -0.0101067 0.00959912
3 95 -0.00424347 -0.00363163
3 96 -0.00554969 0.0158741
3 97 -0.0338391 0.0278155
3 98 0.0106052 0.0123734
3 99 0.10092 -8.87775e-005
3 100 0.1 0
4 0 0 0
4 1 5.29161e-006 3.05387e-006
4 2 1.23946e-005 8.79519e-006
4 3 1.6011e-006 1.9095e-005
4 4 -2.13891e-005 4.61955e-005
4 5 -4.22878e-005 6.884e-005
4 6 -6.73449e-005 0.000113455
4 7 -8.24395e-005 0.000185513
4 8 -9.89513e-005 0.000248846
4 9 -0.00011369 0.000307482
4 10 -0.000129644 0.000401107
4 11 -0.00013694 0.000504527
4 12 -0.000148305 0.000583197
4 13 -0.000157371 0.00067703
4 14 -0.00016802 0.000805348
4 15 -0.000168916 0.000913823
4 16 -0.000178162 0.00100289
4 17 -0.000181886 0.00113081
4 18 -0.000186974 0.0012695
4 19 -0.000182123 0.00136617
4 20 -0.000189826 0.00147135
4 21 -0.000186226 0.0016212
4 22 -0.000185815 0.00174101
4 23 -0.000176549 0.00182333
4 24 -0.00018228 0.00194944
4 25 -0.000170252 0.00209423
4 26 -0.000166428 0.00217369
4 27 -0.00015402 0.00225373
4 28 -0.000157709 0.00239387
4 29 -0.000137798 0.00249893
4 30 -0.000133421 0.00253714
4 31 -0.000119216 0.0026329
4 32 -0.000121499 0.00276139
4 33 -9.44099e-005 0.00280002
4 34 -9.31533e-005 0.00282161
4 35 -7.88038e-005 0.00293994
4 36 -7.90116e-005 0.00301481
4 37 -4.56843e-005 0.00298799
4 38 -5.32926e-005 0.00303301
4 39 -3.79714e-005 0.00315071
4 40 -3.33317e-005 0.00313251
4 41 1.93716e-006 0.00308195
4 42 -2.03207e-005 0.00317686
4 43 2.89885e-006 0.00323573
4 44 1.30906e-005 0.00312119
4 45 4.11114e-005 0.00311779
4 46 4.41219e-006 0.00323852
4 47 4.74339e-005 0.00317221
4 48 5.54044e-005 0.00302208
4 49 6.61939e-005 0.00311961
4 50 2.64146e-005 0.00317719
4 51 9.90208e-005 0.00296841
4 52 8.52591e-005 0.00289543
4 53 7.71254e-005 0.00306845
4 54 5.63608e-005 0.00294857
4 55 0.000155799 0.00267987
4 56 9.26731e-005 0.00278019
4 57 8.34763e-005 0.00289548
4 58 0.000105716 0.00254758
4 59 0.000206207 0.00239334
4 60 7.19357e-005 0.00264971
4 61 0.00010782 0.00251673
4 62 0.000178906 0.00204053
4 63 0.000226783 0.0021747
4 64 3.28732e-005 0.00239805
4 65 0.000184743 0.00189819
4 66 0.000258921 0.00155581
4 67 0.000188059 0.00200572
4 68 1.5302e-005 0.00188195
4 69 0.000344013 0.00111723
4 70 0.000287301 0.00122888
4 71 7.81891e-005 0.00175331
4 72 9.27549e-005 0.00101826
4 73 0.000559564 0.000391944
4 74 0.000156545 0.00112801
4 75 -5.35161e-005 0.00121543
4 76 0.000329745 -7.9579e-005
4 77 0.000657504 7.54028e-005
4 78 -0.000244678 0.00120126
4 79 -5.43042e-005 0.000281383
4 80 0.000638237 -0.000934791
4 81 0.000234955 0.000606361
4 82 -0.000883604 0.00128989
4 83 0.000300802 -0.000761284
4 84 0.000523097 -0.000538588
4 85 -0.00123586 0.00233005
4 86 -0.00134505 0.00125562
4 87 0.0010466 -0.000838075
4 88 -0.000953173 0.00259704
4 89 -0.00382796 0.00512136
4 90 -0.000970755 0.00129112
4 91 0.000776289 0.00202367
4 92 -0.0049119 0.00983757
4 93 -0.00557133 0.00866574
4 94 -0.00142548 0.00312079
4 95 -0.0102731 0.0131989
4 96 -0.0151006 0.0127269
4 97 -0.00734427 -0.00928291
4 98 0.0116245 -0.0176207
4 99 0.0927639 -0.00110064
4 100 0.1 0
5 0 0 0
5 1 6.68748e-006 9.26185e-007
5 2 1.47808e-005 -6.50979e-006
5 3 -1.67039e-005 1.94275e-005
5 4 -4.81078e-005 5.1712e-005
5 5 -7.872e-005 9.15473e-005
5 6 -0.000120052 0.00014998
5 7 -0.000146787 0.00021593
5 8 -0.000169402 0.000290801
5 9 -0.000196309 0.00038463
5 10 -0.000222201 0.00048743
5 11 -0.000232434 0.000586083
5 12 -0.000248827 0.000697196
5 13 -0.000269877 0.000825431
5 14 -0.000281825 0.000947799
5 15 -0.000282246 0.00106715
5 16 -0.000298608 0.00120604
5 17 -0.000309729 0.00134922
5 18 -0.000307755 0.00147583
5 19 -0.000304004 0.0016112
5 20 -0.000318991 0.00176386
5 21 -0.000314045 0.00190133
5 22 -0.000301553 0.00202482
5 23 -0.000298167 0.00216993
5 24 -0.000306772 0.00231522
5 25 -0.000283107 0.00243168
5 26 -0.000268263 0.00255069
5 27 -0.000267382 0.0026929
5 28 -0.000263082 0.00280877
5 29 -0.000224152 0.00289998
5 30 -0.000218085 0.00301465
5 31 -0.000216377 0.00313474
5 32 -0.000193447 0.0032069
5 33 -0.000150883 0.00328045
5 34 -0.000162412 0.00338596
5 35 -0.000148375 0.00346207
5 36 -0.000107902 0.00349171
5 37 -8.03601e-005 0.00356108
5 38 -0.000106857 0.00364152
5 39 -6.44086e-005 0.00365833
5 40 -2.2232e-005 0.00366496
5 41 -2.57251e-005 0.00373642
5 42 -4.64572e-005 0.00376501
5 43 3.15164e-005 0.00372673
5 44 4.39281e-005 0.00373979
5 45 1.34948e-005 0.00379799
5 46 3.06478e-005 0.0037498
5 47 0.000124949 0.00368785
5 48 7.64838e-005 0.00372562
5 49 5.62369e-005 0.00373053
5 50 0.000129483 0.00360445
5 51 0.000190813 0.00356844
5 52 8.13891e-005 0.00361427
5 53 0.000131045 0.00351869
5 54 0.000233348 0.0033543
5 55 0.000207944 0.00338372
5 56 9.21682e-005 0.00337647
5 57 0.000253683 0.00316055
5 58 0.000303154 0.00303415
5 59 0.000182803 0.00312085
5 60 0.000158267 0.00297298
5 61 0.000404623 0.00267945
5 62 0.000299115 0.00267222
5 63 0.000164907 0.00273213
5 64 0.000313649 0.00237709
5 65 0.000523615 0.00212778
5 66 0.000217204 0.00226925
5 67 0.000235138 0.00214459
5 68 0.00053711 0.00160464
5 69 0.000530397 0.00158075
5 70 0.000116777 0.00177895
5 71 0.000457565 0.00129532
5 72 0.000719657 0.000754294
5 73 0.000365959 0.00111697
5 74 0.000107626 0.0011074
5 75 0.000799279 0.000212785
5 76 0.000650923 5.82152e-005
5 77 3.26478e-005 0.000781823
5 78 0.000280055 0.000166967
5 79 0.00102713 -0.000839526
5 80 4.94721e-005 -9.29892e-005
5 81 -0.00039072 0.000537904
5 82 0.000587774 -0.000982375
5 83 0.000605763 -0.00119528
5 84 -0.00128418 0.000739227
5 85 -0.000767144 0.000232587
5 86 0.000644155 -0.00185838
5 87 -0.00117842 0.000283961
5 88 -0.00314856 0.00269239
5 89 -0.00107134 -0.000108289
5 90 -0.000697372 -0.000771309
5 91 -0.00476211 0.00485056
5 92 -0.00594135 0.00462799
5 93 -0.00169089 0.0011261
5 94 -0.00577642 0.00759816
5 95 -0.0145698 0.00670325
5 96 0.0010827 -0.004113
5 97 -0.00693922 0.000385628
5 98 0.00414287 0.00813988
5 99 0.087769 0.0012021
5 100 0.1 0
6 0 0 0
6 1 1.77345e-006 2.76813e-006
6 2 1.11232e-005 3.06978e-005
6 3 -3.5065e-005 3.40424e-005
6 4 -8.5996e-005 5.51465e-005
6 5 -0.000134255 0.000118234
6 6 -0.000176187 0.000187396
6 7 -0.000220818 0.000249581
6 8 -0.000260839 0.000342317
6 9 -0.000291738 0.000455309
6 10 -0.000315903 0.000552265
6 11 -0.000348762 0.000657698
6 12 -0.000371206 0.000799473
6 13 -0.000387116 0.00093389
6 14 -0.000402601 0.00104828
6 15 -0.000426434 0.00119329
6 16 -0.000432941 0.00135955
6 17 -0.00043861 0.00149297
6 18 -0.000448151 0.00162532
6 19 -0.00045931 0.00180006
6 20 -0.000449472 0.00196157
6 21 -0.00044879 0.00208439
6 22 -0.000450314 0.00223739
6 23 -0.000445204 0.00241832
6 24 -0.00042256 0.00254918
6 25 -0.000419152 0.00266524
6 26 -0.000409356 0.00283348
6 27 -0.000388885 0.00298745
6 28 -0.000360134 0.00307683
6 29 -0.000356222 0.00319816
6 30 -0.0003329 0.00336129
6 31 -0.000302192 0.00345766
6 32 -0.000274673 0.00351693
6 33 -0.000270795 0.00365164
6 34 -0.000232825 0.00377403
6 35 -0.000199912 0.0038013
6 36 -0.000180306 0.00386044
6 37 -0.000173579 0.0039965
6 38 -0.000120796 0.00403845
6 39 -9.73872e-005 0.00401879
6 40 -8.82542e-005 0.00410708
6 41 -7.03316e-005 0.00420201
6 42 -7.87753e-006 0.00414505
6 43 -7.92214e-006 0.00413372
6 44 -9.14919e-007 0.00424773
6 45 3.72565e-005 0.00424029
6 46 9.37013e-005 0.00411655
6 47 6.3061e-005 0.00417186
6 48 8.88997e-005 0.00425088
6 49 0.000145216 0.00410398
6 50 0.000172998 0.00400194
6 51 0.000122606 0.00412977
6 52 0.000190675 0.00407138
6 53 0.000243437 0.00382633
6 54 0.00022675 0.003846
6 55 0.00018781 0.00395552
6 56 0.000307141 0.0036855
6 57 0.000318441 0.0034796
6 58 0.000264116 0.00364422
6 59 0.000277886 0.00356699
6 60 0.00043016 0.00313155
6 61 0.00035966 0.00313654
6 62 0.000306552 0.00331545
6 63 0.000406554 0.00291182
6 64 0.000540296 0.00252076
6 65 0.000364067 0.00280703
6 66 0.000384893 0.00272828
6 67 0.00057399 0.00204161
6 68 0.000601598 0.00199473
6 69 0.000338564 0.00239302
6 70 0.000533456 0.00179516
6 71 0.000742384 0.00115426
6 72 0.000548262 0.00164058
6 73 0.000304489 0.00171996
6 74 0.000761708 0.000609434
6 75 0.000776828 0.000569963
6 76 0.000282092 0.00141515
6 77 0.000300362 0.00068001
6 78 0.000963621 -0.000428925
6 79 0.000374997 0.000630287
6 80 -0.000267532 0.00114134
6 81 0.000346391 -0.000536139
6 82 0.000744494 -0.000564964
6 83 -0.00088963 0.00151293
6 84 -0.000969723 0.000633304
6 85 0.00025055 -0.00114517
6 86 -0.000777521 0.00119625
6 87 -0.00316909 0.003055
6 88 -0.00136814 0.000229466
6 89 -0.00100465 0.000652289
6 90 -0.00500674 0.00560215
6 91 -0.00552435 0.00510827
6 92 -0.00166327 0.00195078
6 93 -0.00697739 0.00691973
6 94 -0.010399 0.01039
6 95 -0.00462107 0.00616687
6 96 0.00164677 0.009221
6 97 -0.0133391 0.0128519
6 98 0.0112009 0.0018998
6 99 0.0942966 -0.000588854
6 100 0.1 0
7 0 0 0
7 1 3.01667e-006 5.65477e-007
7 2 1.29768e-006 -7.60108e-006
7 3 -5.86267e-005 2.34623e-005
7 4 -0.000123635 7.44426e-005
7 5 -0.000190412 0.000124651
7 6 -0.00024457 0.000185766
7 7 -0.000301699 0.000274082
7 8 -0.000353092 0.000373439
7 9 -0.000394837 0.000469799
7 10 -0.000427584 0.000585639
7 11 -0.000469417 0.00072091
7 12 -0.00049745 0.000848463
7 13 -0.000520178 0.000976757
7 14 -0.000541791 0.00113221
7 15 -0.000570381 0.00128986
7 16 -0.000578065 0.00142965
7 17 -0.000588849 0.00158546
7 18 -0.000600974 0.0017634
7 19 -0.000612084 0.00192032
7 20 -0.00060051 0.00206621
7 21 -0.000603161 0.00224255
7 22 -0.000602386 0.00241772
7 23 -0.000592962 0.00255793
7 24 -0.000566584 0.00270959
7 25 -0.000564679 0.00288946
7 26 -0.000547027 0.00303543
7 27 -0.000518761 0.00315556
7 28 -0.000486384 0.00331112
7 29 -0.000482156 0.00346833
7 30 -0.00044364 0.00356879
7 31 -0.00040498 0.00367726
7 32 -0.000377302 0.00382606
7 33 -0.000367388 0.00393269
7 34 -0.000306727 0.00399015
7 35 -0.000274141 0.00409895
7 36 -0.000255926 0.00421718
7 37 -0.000230126 0.00425589
7 38 -0.000155775 0.004293
7 39 -0.000148408 0.00440333
7 40 -0.00012925 0.00445734
7 41 -7.87688e-005 0.00443581
7 42 -1.34549e-005 0.0044839
7 43 -3.89125e-005 0.00457158
7 44 7.16455e-006 0.00453473
7 45 7.39701e-005 0.00449215
7 46 0.000101083 0.00456525
7 47 6.22349e-005 0.00458101
7 48 0.000160383 0.00445995
7 49 0.000207082 0.00445126
7 50 0.000184341 0.00451951
7 51 0.000179299 0.00441533
7 52 0.000324548 0.00426506
7 53 0.000298015 0.00432174
7 54 0.000259097 0.00430884
7 55 0.000335225 0.00408104
7 56 0.000471583 0.00398709
7 57 0.000342013 0.00407578
7 58 0.000370852 0.00389562
7 59 0.00052609 0.00361469
7 60 0.000561392 0.0036407
7 61 0.000372368 0.00365279
7 62 0.000562861 0.0032733
7 63 0.000703989 0.003071
7 64 0.000573276 0.00319759
7 65 0.000461227 0.00299064
7 66 0.000833627 0.00248831
7 67 0.000784556 0.002498
7 68 0.000542091 0.00259065
7 69 0.000680477 0.0020727
7 70 0.00109126 0.00164461
7 71 0.000685781 0.00191689
7 72 0.000561663 0.00174865
7 73 0.00101355 0.000975314
7 74 0.00112985 0.000898276
7 75 0.000380955 0.00131685
7 76 0.00071554 0.000655455
7 77 0.00123605 -8.73974e-005
7 78 0.000663855 0.000441798
7 79 -7.36378e-005 0.000661846
7 80 0.000930549 -0.000569979
7 81 0.000821495 -0.000715739
7 82 -0.000537362 0.000449941
7 83 -0.000572619 -8.16875e-005
7 84 0.000744448 -0.00150987
7 85 -0.000998799 -0.00024937
7 86 -0.00244005 0.000979755
7 87 -0.00123603 -0.000752004
7 88 -0.000994848 -0.000973485
7 89 -0.00467009 0.00221624
7 90 -0.00494737 0.00175463
7 91 -0.00330253 -0.000454515
7 92 -0.00549149 0.00337456
7 93 -0.0104716 0.00603655
7 94 -0.00579284 0.00179327
7 95 -0.00768894 0.00320125
7 96 -0.0110759 0.0107719
7 97 -0.008178 0.0143448
7 98 0.0219348 0.00859672
7 99 0.096443 -0.000175866
7 100 0.1 0
8 0 0 0
8 1 4.67834e-006 2.57285e-006
8 2 -1.15132e-005 1.48659e-005
8 3 -9.31563e-005 3.91187e-005
8 4 -0.000165511 7.97065e-005
8 5 -0.000245913 0.000125968
8 6 -0.000324996 0.000200521
8 7 -0.000391605 0.000300386
8 8 -0.000444763 0.000393652
8 9 -0.00050445 0.000492021
8 10 -0.000554885 0.000624229
8 11 -0.000591472 0.00076084
8 12 -0.000624667 0.000882619
8 13 -0.000668044 0.00102611
8 14 -0.000693425 0.00119483
8 15 -0.000710082 0.00134399
8 16 -0.000732643 0.00148839
8 17 -0.000758283 0.00166735
8 18 -0.000758517 0.00184611
8 19 -0.000761504 0.00199432
8 20 -0.000772521 0.00216071
8 21 -0.000773989 0.00235542
8 22 -0.000751631 0.00251845
8 23 -0.000746141 0.0026627
8 24 -0.000740871 0.00284492
8 25 -0.000716379 0.00302649
8 26 -0.00067973 0.00315772
8 27 -0.000669562 0.00330209
8 28 -0.00064396 0.00348316
8 29 -0.000598867 0.00362252
8 30 -0.000558948 0.00372218
8 31 -0.000545529 0.00387057
8 32 -0.000497869 0.00402246
8 33 -0.000443152 0.0041027
8 34 -0.000410531 0.00418724
8 35 -0.000391348 0.00433284
8 36 -0.000322235 0.00442285
8 37 -0.000273769 0.00445083
8 38 -0.000254378 0.00454239
8 39 -0.000220356 0.00465842
8 40 -0.000136402 0.00466464
8 41 -0.000113491 0.0046747
8 42 -0.000100143 0.00477952
8 43 -3.92761e-005 0.00482129
8 44 3.96045e-005 0.00475448
8 45 2.48453e-005 0.00479341
8 46 5.74925e-005 0.00487867
8 47 0.000144671 0.00480792
8 48 0.000187537 0.00472421
8 49 0.000147437 0.00481288
8 50 0.000230562 0.00480535
8 51 0.000316106 0.00463242
8 52 0.000301249 0.00461225
8 53 0.000278257 0.00470295
8 54 0.000421571 0.00453058
8 55 0.000454961 0.00434251
8 56 0.00039624 0.0044279
8 57 0.000443721 0.00439926
8 58 0.000613713 0.00406524
8 59 0.000550319 0.00399831
8 60 0.000507119 0.00412031
8 61 0.000652482 0.00384308
8 62 0.000775674 0.00348165
8 63 0.000612782 0.00362415
8 64 0.000670105 0.00358489
8 65 0.000882593 0.00304664
8 66 0.000874838 0.00289469
8 67 0.000671267 0.0031615
8 68 0.000897986 0.00272996
8 69 0.00107637 0.00214557
8 70 0.00088111 0.00239435
8 71 0.000749663 0.00247232
8 72 0.00115279 0.00159117
8 73 0.00112506 0.0013895
8 74 0.000748577 0.00196048
8 75 0.000834809 0.00143284
8 76 0.00130113 0.000436995
8 77 0.00082873 0.00104135
8 78 0.000400226 0.00142648
8 79 0.000842527 0.000111971
8 80 0.00102113 -0.00020405
8 81 -0.000131095 0.00120983
8 82 -0.000221691 0.000587617
8 83 0.000505302 -0.000964743
8 84 -0.000360181 0.000379276
8 85 -0.00207543 0.00175023
8 86 -0.00111025 -0.000325009
8 87 -0.0010573 -0.000436951
8 88 -0.00389838 0.00275517
8 89 -0.00475722 0.00255659
8 90 -0.00258103 0.000355652
8 91 -0.00607376 0.00344638
8 92 -0.00913471 0.0060385
8 93 -0.00662619 0.00351684
8 94 -0.00529228 0.00420268
8 95 -0.0132449 0.00874512
8 96 -0.0107408 0.00588022
8 97 -0.00067001 0.000277182
8 98 0.0245193 -0.00518916
8 99 0.0966335 -0.00103051
8 100 0.1 0
9 0 0 0
9 1 4.01498e-006 1.59861e-007
9 2 -1.88018e-005 1.5104e-006
9 3 -0.000120018 2.9755e-005
9 4 -0.000212495 6.89619e-005
9 5 -0.000307913 0.000133604
9 6 -0.000399077 0.000211728
9 7 -0.000480803 0.000288342
9 8 -0.000549471 0.000388995
9 9 -0.000617025 0.000516377
9 10 -0.000674629 0.000636482
9 11 -0.00072358 0.000755795
9 12 -0.000767311 0.000908798
9 13 -0.000811326 0.0010691
9 14 -0.000842884 0.00120855
9 15 -0.000870384 0.00136539
9 16 -0.000896167 0.00155328
9 17 -0.000917765 0.00172045
9 18 -0.000925893 0.00187253
9 19 -0.000934727 0.00206177
9 20 -0.000940617 0.00225733
9 21 -0.000937519 0.00241246
9 22 -0.000923517 0.00257839
9 23 -0.000914935 0.00278322
9 24 -0.000899296 0.00295524
9 25 -0.000872268 0.00309317
9 26 -0.000840905 0.00327247
9 27 -0.000818521 0.00346301
9 28 -0.000781591 0.00358971
9 29 -0.000735921 0.00371886
9 30 -0.000696492 0.00390027
9 31 -0.000663396 0.00404239
9 32 -0.000606441 0.00412261
9 33 -0.000553878 0.00425633
9 34 -0.00051564 0.00441328
9 35 -0.000469687 0.00448309
9 36 -0.000398856 0.004539
9 37 -0.000355767 0.00468069
9 38 -0.00031868 0.00477444
9 39 -0.000255083 0.00477449
9 40 -0.000186264 0.00484141
9 41 -0.00016341 0.00496796
9 42 -0.000114055 0.00496402
9 43 -3.61482e-005 0.00493344
9 44 8.40527e-006 0.00503285
9 45 1.88056e-005 0.0050904
9 46 9.84151e-005 0.0049882
9 47 0.00016917 0.00499012
9 48 0.000176042 0.00509622
9 49 0.00020454 0.00502569
9 50 0.000316491 0.00488143
9 51 0.000343709 0.00495929
9 52 0.000329338 0.00498883
9 53 0.00041389 0.00477732
9 54 0.000524853 0.00468916
9 55 0.000481848 0.00481273
9 56 0.000501785 0.00466426
9 57 0.000652802 0.00438693
9 58 0.000696062 0.00443131
9 59 0.000603765 0.00447789
9 60 0.000731138 0.00411229
9 61 0.000894253 0.00391829
9 62 0.000808195 0.00406864
9 63 0.000760059 0.00387709
9 64 0.00102704 0.00338728
9 65 0.00107388 0.00341431
9 66 0.000872636 0.0035056
9 67 0.00101012 0.00299212
9 68 0.0013284 0.00259798
9 69 0.00111115 0.0028564
9 70 0.000949382 0.00264581
9 71 0.001357 0.00191278
9 72 0.00146877 0.00186015
9 73 0.000956038 0.0021628
9 74 0.00110892 0.00147464
9 75 0.00163778 0.000835303
9 76 0.00119024 0.00124067
9 77 0.000629358 0.00123492
9 78 0.00130239 0.000123682
9 79 0.00141388 2.48838e-005
9 80 0.000245114 0.000733154
9 81 0.000181279 4.96373e-005
9 82 0.00111061 -0.00105304
9 83 -4.38504e-005 -0.000166325
9 84 -0.00145435 0.000337753
9 85 -0.00060615 -0.00111186
9 86 -0.000623952 -0.00121706
9 87 -0.00340895 0.000813395
9 88 -0.00385886 0.00024196
9 89 -0.00292046 -0.00119327
9 90 -0.00532037 0.00118976
9 91 -0.00843019 0.00316284
9 92 -0.00661856 0.000721755
9 93 -0.00783667 0.00189244
9 94 -0.0114343 0.00636178
9 95 -0.00977577 0.00474759
9 96 -0.0057081 -0.000366548
9 97 -0.00212617 0.00310731
9 98 0.0240469 0.00533872
9 99 0.0968352 -9.61829e-005
9 100 0.1 0
10 0 0 0
10 1 3.05325e-007 2.39734e-006
10 2 -2.83714e-005 2.67356e-005
10 3 -0.000144715 3.45779e-005
10 4 -0.000261986 6.7458e-005
10 5 -0.000376257 0.000135964
10 6 -0.000472773 0.000211724
10 7 -0.000571269 0.000293006
10 8 -0.000661715 0.000402377
10 9 -0.000733069 0.000524042
10 10 -0.00079354 0.000640992
10 11 -0.000863007 0.000774534
10 12 -0.000917306 0.000931619
10 13 -0.000954782 0.00108143
10 14 -0.000995838 0.00122996
10 15 -0.00104228 0.00140398
10 16 -0.00106359 0.00158393
10 17 -0.00107786 0.00174628
10 18 -0.00110322 0.0019213
10 19 -0.00111997 0.00211794
10 20 -0.00110896 0.00229763
10 21 -0.00110622 0.00246497
10 22 -0.00111091 0.00265702
10 23 -0.00109252 0.00285109
10 24 -0.00105614 0.00301347
10 25 -0.00104136 0.00318197
10 26 -0.00102003 0.00337345
10 27 -0.000969575 0.00353971
10 28 -0.000920386 0.00367805
10 29 -0.000896885 0.00384347
10 30 -0.000847274 0.00401089
10 31 -0.000776097 0.0041329
10 32 -0.000728156 0.00425117
10 33 -0.000695987 0.00440461
10 34 -0.000619232 0.00452405
10 35 -0.000544851 0.00460115
10 36 -0.000509152 0.00470897
10 37 -0.000461983 0.0048328
10 38 -0.000364105 0.00488841
10 39 -0.00030892 0.00493781
10 40 -0.000285056 0.00503906
10 41 -0.000210007 0.00510706
10 42 -0.000109319 0.00510213
10 43 -9.26799e-005 0.00515154
10 44 -5.91511e-005 0.00523018
10 45 4.99339e-005 0.00521811
10 46 0.000119238 0.00518332
10 47 0.000100993 0.00524981
10 48 0.000180725 0.00526434
10 49 0.000301734 0.00517325
10 50 0.000307198 0.00515824
10 51 0.000295685 0.0052199
10 52 0.000442928 0.00512267
10 53 0.000521261 0.00500001
10 54 0.000466424 0.00503783
10 55 0.000526736 0.00502284
10 56 0.000712988 0.00480475
10 57 0.000691297 0.00473546
10 58 0.000637812 0.00479358
10 59 0.000812169 0.00461303
10 60 0.000952727 0.00434594
10 61 0.000822221 0.00439699
10 62 0.000870948 0.00435455
10 63 0.0011272 0.00397957
10 64 0.00112063 0.00381279
10 65 0.000956838 0.00394882
10 66 0.00118422 0.00364297
10 67 0.0013987 0.00318862
10 68 0.00119673 0.00326561
10 69 0.0011409 0.00329321
10 70 0.00152336 0.00264865
10 71 0.00151944 0.00239232
10 72 0.00118017 0.00269605
10 73 0.00136363 0.00231732
10 74 0.00173514 0.00151168
10 75 0.00135551 0.0017669
10 76 0.00104247 0.00198023
10 77 0.00149689 0.00101154
10 78 0.00154056 0.000559043
10 79 0.000709234 0.00138645
10 80 0.000668797 0.000940306
10 81 0.00120932 -0.000318455
10 82 0.000429953 0.00027682
10 83 -0.000752869 0.00116555
10 84 -0.000218251 -0.0002902
10 85 -0.000310489 -0.000701862
10 86 -0.00250325 0.00118502
10 87 -0.00333746 0.00111395
10 88 -0.00228199 -0.000492699
10 89 -0.0046603 0.00137745
10 90 -0.00765556 0.00319278
10 91 -0.00652651 0.00187844
10 92 -0.00657674 0.00238678
10 93 -0.0114892 0.00548166
10 94 -0.011315 0.00465831
10 95 -0.00583509 0.00455158
10 96 -0.00783049 0.00737895
10 97 -0.00213057 0.00645437
10 98 0.0290436 -0.000603882
10 99 0.0988679 -0.000969278
10 100 0.1 0
11 0 0 0
11 1 2.51653e-006 6.10769e-008
11 2 -3.99016e-005 -1.31751e-005
11 3 -0.000176745 2.43867e-005
11 4 -0.000304524 8.00124e-005
11 5 -0.000436756 0.000126208
11 6 -0.000555456 0.000193839