Title= "LBM Lid Driven Flow"
VARIABLES="X","Y","U","V"
ZONE T="BOX",I=101,J=101,F=POINT
0 0 0 0
0 1 0 0
0 2 0 0
0 3 0 0
0 4 0 0
0 5 0 0
0 6 0 0
0 7 0 0
0 8 0 0
0 9 0 0
0 10 0 0
0 11 0 0
0 12 0 0
0 13 0 0
0 14 0 0
0 15 0 0
0 16 0 0
0 17 0 0
0 18 0 0
0 19 0 0
0 20 0 0
0 21 0 0
0 22 0 0
0 23 0 0
0 24 0 0
0 25 0 0
0 26 0 0
0 27 0 0
0 28 0 0
0 29 0 0
0 30 0 0
0 31 0 0
0 32 0 0
0 33 0 0
0 34 0 0
0 35 0 0
0 36 0 0
0 37 0 0
0 38 0 0
0 39 0 0
0 40 0 0
0 41 0 0
0 42 0 0
0 43 0 0
0 44 0 0
0 45 0 0
0 46 0 0
0 47 0 0
0 48 0 0
0 49 0 0
0 50 0 0
0 51 0 0
0 52 0 0
0 53 0 0
0 54 0 0
0 55 0 0
0 56 0 0
0 57 0 0
0 58 0 0
0 59 0 0
0 60 0 0
0 61 0 0
0 62 0 0
0 63 0 0
0 64 0 0
0 65 0 0
0 66 0 0
0 67 0 0
0 68 0 0
0 69 0 0
0 70 0 0
0 71 0 0
0 72 0 0
0 73 0 0
0 74 0 0
0 75 0 0
0 76 0 0
0 77 0 0
0 78 0 0
0 79 0 0
0 80 0 0
0 81 0 0
0 82 0 0
0 83 0 0
0 84 0 0
0 85 0 0
0 86 0 0
0 87 0 0
0 88 0 0
0 89 0 0
0 90 0 0
0 91 0 0
0 92 0 0
0 93 0 0
0 94 0 0
0 95 0 0
0 96 0 0
0 97 0 0
0 98 0 0
0 99 0 0
0 100 0.1 0
1 0 0 0
1 1 -6.09542e-006 7.07311e-006
1 2 3.89019e-006 4.91211e-005
1 3 -3.17072e-006 2.04108e-005
1 4 1.09752e-006 1.0714e-005
1 5 -4.77964e-006 1.05392e-005
1 6 6.3572e-007 4.93791e-006
1 7 -5.50036e-006 2.34267e-006
1 8 8.02943e-008 8.06399e-006
1 9 -4.53315e-006 -6.75854e-006
1 10 -6.37184e-007 -1.21462e-005
1 11 -4.70985e-006 -6.73708e-006
1 12 1.06675e-006 -1.31513e-005
1 13 -3.19456e-006 -3.40739e-005
1 14 9.64635e-007 -2.98501e-005
1 15 -7.07736e-007 -2.92739e-005
1 16 5.08344e-006 -5.25489e-005
1 17 1.30015e-006 -6.57575e-005
1 18 7.74328e-006 -5.35472e-005
1 19 7.82167e-006 -6.87136e-005
1 20 1.3568e-005 -9.53713e-005
1 21 1.11624e-005 -8.52397e-005
1 22 2.09598e-005 -7.44853e-005
1 23 2.06799e-005 -0.000102049
1 24 2.66619e-005 -0.000103452
1 25 2.62721e-005 -6.6088e-005
1 26 3.80719e-005 -6.88216e-005
1 27 3.4348e-005 -8.47305e-005
1 28 4.15914e-005 -3.76245e-005
1 29 4.21112e-005 5.26019e-006
1 30 5.21454e-005 -1.44005e-005
1 31 4.31262e-005 1.47466e-005
1 32 5.3394e-005 9.73099e-005
1 33 5.11008e-005 0.000104929
1 34 5.60404e-005 8.72509e-005
1 35 4.34542e-005 0.000176281
1 36 5.779e-005 0.000237474
1 37 4.74863e-005 0.00018861
1 38 4.83846e-005 0.000214868
1 39 3.67285e-005 0.000334105
1 40 5.33515e-005 0.000307349
1 41 3.12477e-005 0.000240355
1 42 3.50547e-005 0.000346402
1 43 2.72469e-005 0.000414984
1 44 4.06568e-005 0.000284067
1 45 8.27275e-006 0.00029447
1 46 2.52656e-005 0.000449421
1 47 1.67119e-005 0.000371833
1 48 2.1473e-005 0.000226094
1 49 -1.12313e-005 0.000389445
1 50 2.4449e-005 0.000458556
1 51 1.55738e-006 0.000226166
1 52 1.84587e-006 0.00023925
1 53 -1.71214e-005 0.000487268
1 54 2.82335e-005 0.000313031
1 55 -2.12655e-005 9.78044e-005
1 56 -5.60057e-006 0.00037209
1 57 -8.09341e-006 0.000460327
1 58 2.52239e-005 5.91007e-005
1 59 -4.4159e-005 0.000140085
1 60 1.09815e-005 0.000517357
1 61 2.72114e-006 0.000215079
1 62 1.12888e-005 -0.000112098
1 63 -4.88197e-005 0.000378055
1 64 4.86733e-005 0.00046496
1 65 -2.31544e-006 -0.000152557
1 66 1.07038e-006 -3.86499e-006
1 67 -2.21936e-005 0.000620847
1 68 8.73353e-005 0.000109122
1 69 -2.5255e-005 -0.000374355
1 70 1.95793e-005 0.000382133
1 71 2.85815e-005 0.000590798
1 72 0.000107092 -0.000413214
1 73 -4.64331e-005 -0.000207245
1 74 8.31891e-005 0.000802492
1 75 8.02253e-005 0.000135565
1 76 0.000106834 -0.00078912
1 77 -3.71087e-005 0.000395712
1 78 0.000191952 0.00089763
1 79 0.000109893 -0.000686781
1 80 0.000105627 -0.000669066
1 81 3.19707e-005 0.00123433
1 82 0.000334215 0.000294516
1 83 0.00010747 -0.00161622
1 84 0.0001385 0.000257754
1 85 0.000200312 0.00177956
1 86 0.000490047 -0.00139838
1 87 7.86433e-005 -0.00206342
1 88 0.000279967 0.00215712
1 89 0.000543555 0.000715036
1 90 0.000607987 -0.0044593
1 91 4.58492e-005 -0.000236341
1 92 0.000738614 0.00466127
1 93 0.00124121 -0.00580308
1 94 0.000757112 -0.0110849
1 95 7.93118e-005 0.00672398
1 96 0.00249875 0.00293778
1 97 0.00227278 -0.0231745
1 98 -0.00299317 0.0342528
1 99 0.00731399 0.0123779
1 100 0.1 0
2 0 0 0
2 1 -5.78597e-005 -2.61376e-006
2 2 3.40314e-005 -2.43658e-005
2 3 -1.08199e-005 -1.5584e-005
2 4 4.82647e-005 -4.52182e-005
2 5 -1.62369e-005 -9.44833e-005
2 6 5.38152e-005 -0.000134323
2 7 -5.80936e-006 -0.000194045
2 8 5.06602e-005 -0.000266195
2 9 3.56953e-006 -0.000328836
2 10 5.48142e-005 -0.000392491
2 11 4.49136e-006 -0.000482723
2 12 5.60383e-005 -0.000564624
2 13 1.17513e-005 -0.000631633
2 14 5.22453e-005 -0.000713058
2 15 8.56108e-006 -0.000805249
2 16 5.19963e-005 -0.000862065
2 17 1.26605e-006 -0.000908977
2 18 3.76612e-005 -0.000968269
2 19 -1.04733e-005 -0.00099745
2 20 2.27316e-005 -0.000972158
2 21 -3.79638e-005 -0.000947679
2 22 -4.65945e-007 -0.00090618
2 23 -6.44905e-005 -0.000789739
2 24 -3.45646e-005 -0.000629542
2 25 -0.000102155 -0.000476432
2 26 -5.8909e-005 -0.000258759
2 27 -0.00014311 4.22705e-005
2 28 -9.70145e-005 0.000341861
2 29 -0.000166796 0.000646496
2 30 -0.000114954 0.00104929
2 31 -0.000212512 0.001482
2 32 -0.000124962 0.00186296
2 33 -0.000204103 0.00228399
2 34 -0.000142027 0.00278806
2 35 -0.000235895 0.00322615
2 36 -9.61161e-005 0.0036046
2 37 -0.000210643 0.00406428
2 38 -0.000124259 0.00452662
2 39 -0.000199814 0.00484394
2 40 -2.9068e-005 0.00516709
2 41 -0.000205063 0.00557402
2 42 -5.68239e-005 0.00585559
2 43 -0.000125894 0.00600648
2 44 3.15136e-005 0.00627209
2 45 -0.000196211 0.0065271
2 46 5.92255e-005 0.00655843
2 47 -6.61593e-005 0.00660756
2 48 5.60161e-005 0.00681231
2 49 -0.000160901 0.0068165
2 50 0.000199381 0.00665364
2 51 -8.00648e-005 0.00671507
2 52 7.36786e-005 0.00677984
2 53 -7.40191e-005 0.0064985
2 54 0.000294564 0.00632394
2 55 -0.000176667 0.00642594
2 56 0.000163867 0.0062081
2 57 2.17031e-005 0.0057701
2 58 0.000275063 0.00577509
2 59 -0.000268886 0.00576229
2 60 0.000361324 0.00521065
2 61 6.85857e-006 0.00490973
2 62 0.000174903 0.00509235
2 63 -0.000241843 0.00471521
2 64 0.000570698 0.00404397
2 65 -0.000194812 0.00413984
2 66 0.000148319 0.00421042
2 67 -0.000100785 0.0033987
2 68 0.000637105 0.00304819
2 69 -0.000501188 0.00349057
2 70 0.000321141 0.00305671
2 71 7.22604e-006 0.00212512
2 72 0.000507749 0.0024598
2 73 -0.000744193 0.00281406
2 74 0.000681201 0.00173685
2 75 -7.04311e-005 0.00128297
2 76 0.000253672 0.00227364
2 77 -0.000804548 0.00195291
2 78 0.00115297 0.00056291
2 79 -0.000441404 0.00115395
2 80 -1.74938e-005 0.00227644
2 81 -0.000573318 0.000881553
2 82 0.00162616 -3.07378e-005
2 83 -0.00126702 0.00187912
2 84 -9.0497e-005 0.00216627
2 85 0.00016044 -0.000227594
2 86 0.00167463 0.000614793
2 87 -0.00275799 0.0036142
2 88 0.000721137 0.00172522
2 89 0.00161025 -0.000662249
2 90 -0.000337101 0.0040118
2 91 -0.00483631 0.00695865
2 92 0.00465998 0.00138689
2 93 0.00473336 0.00120186
2 94 -0.00840143 0.0135493
2 95 -0.00904479 0.0168019
2 96 0.0154179 0.0125271
2 97 -0.0182551 0.0400139
2 98 -0.025242 0.0350124
2 99 0.0908686 0.000700432
2 100 0.1 0
3 0 0 0
3 1 -2.37665e-005 3.04406e-006
3 2 2.32007e-005 9.11936e-006
3 3 3.83649e-005 -3.30365e-005
3 4 8.74136e-005 -8.88683e-005
3 5 7.2686e-005 -0.000164388
3 6 0.000113891 -0.000248034
3 7 0.000110673 -0.000353875
3 8 0.000136339 -0.000468094
3 9 0.000123318 -0.00058915
3 10 0.000157107 -0.000716221
3 11 0.000145832 -0.000856012
3 12 0.000157607 -0.000986984
3 13 0.000145751 -0.00111973
3 14 0.000164866 -0.00125387
3 15 0.000131044 -0.00137509
3 16 0.000124522 -0.00146839
3 17 9.70917e-005 -0.0015522
3 18 8.02425e-005 -0.00160743
3 19 9.67545e-006 -0.0016118
3 20 -1.80396e-005 -0.00157252
3 21 -7.8111e-005 -0.00149938
3 22 -0.000139301 -0.00135452
3 23 -0.000237274 -0.00113633
3 24 -0.000274063 -0.000872197
3 25 -0.000366439 -0.000546379
3 26 -0.000448043 -0.000125452
3 27 -0.000536204 0.000350786
3 28 -0.000557459 0.000859592
3 29 -0.000661501 0.00144636
3 30 -0.000714325 0.0021052
3 31 -0.000751872 0.00276276
3 32 -0.000739728 0.00343924
3 33 -0.00082921 0.00418795
3 34 -0.000809583 0.00493699
3 35 -0.000786077 0.00562727
3 36 -0.000745284 0.00634217
3 37 -0.000803417 0.00708987
3 38 -0.00069457 0.00774669
3 39 -0.000642376 0.00833616
3 40 -0.000596975 0.00896828
3 41 -0.000612154 0.00955341
3 42 -0.000428078 0.00999117
3 43 -0.000411446 0.0104208
3 44 -0.000370011 0.0108797
3 45 -0.000325071 0.0111912
3 46 -0.000118438 0.0113904
3 47 -0.000197394 0.0116644
3 48 -0.000114748 0.0118756
3 49 -1.25575e-005 0.0118887
3 50 0.00012607 0.0119272
3 51 -4.12401e-005 0.0120432
3 52 0.000167609 0.0119488
3 53 0.000244568 0.0117505
3 54 0.000244915 0.0117233
3 55 0.000107084 0.0116142
3 56 0.000465464 0.0112319
3 57 0.000350505 0.0109947
3 58 0.000281199 0.0108978
3 59 0.000324387 0.0104728
3 60 0.000681627 0.00996681
3 61 0.000270021 0.00982676
3 62 0.000377262 0.00951119
3 63 0.000578202 0.0088037
3 64 0.000676746 0.00844753
3 65 0.000125519 0.00834562
3 66 0.000632206 0.00764355
3 67 0.000678324 0.00692943
3 68 0.000448596 0.00690571
3 69 0.000131135 0.00655852
3 70 0.000939277 0.00552892
3 71 0.000453006 0.00523935
3 72 0.00021369 0.00540524
3 73 0.000361575 0.0045122
3 74 0.00105455 0.00358703
3 75 -3.35035e-005 0.00400389
3 76 0.000217029 0.00384763
3 77 0.000663754 0.00242027
3 78 0.000841222 0.00228972
3 79 -0.000532776 0.00320769
3 80 0.000531615 0.00208086
3 81 0.000822263 0.000691137
3 82 0.000311262 0.0019844
3 83 -0.000820088 0.00249606
3 84 0.00114057 2.6861e-005
3 85 0.000595242 -6.9914e-006
3 86 -0.000621093 0.00280143
3 87 -0.000719626 0.00115148
3 88 0.00215587 -0.00209293
3 89 -0.000761007 0.00164768
3 90 -0.00260697 0.00447801
3 91 -4.04158e-005 -0.00212403
3 92 0.00460075 -0.00311871
3 93 -0.0035595 0.00888445
3 94 -0.0102095 0.00687237
3 95 -0.00407031 -0.00660005
3 96 -0.00689954 0.0137432
3 97 -0.0353756 0.0262243
3 98 0.00963503 0.0118372
3 99 0.101618 -0.000109442
3 100 0.1 0
4 0 0 0
4 1 -4.29555e-006 6.18206e-007
4 2 4.489e-005 -4.8629e-005
4 3 9.01197e-005 -8.97524e-005
4 4 0.000142079 -0.000138754
4 5 0.000187073 -0.000240764
4 6 0.000205142 -0.000371668
4 7 0.000238015 -0.000502715
4 8 0.000252687 -0.000629939
4 9 0.000272697 -0.000792048
4 10 0.00027769 -0.000951624
4 11 0.000293494 -0.0010942
4 12 0.000285137 -0.00124205
4 13 0.000283466 -0.0014024
4 14 0.00026074 -0.00151938
4 15 0.000236639 -0.00160899
4 16 0.000185469 -0.0016968
4 17 0.000135057 -0.00174333
4 18 5.39179e-005 -0.0017087
4 19 -3.05746e-005 -0.0016445
4 20 -0.000139953 -0.00154467
4 21 -0.000251541 -0.00134207
4 22 -0.000391316 -0.00105477
4 23 -0.000520084 -0.000743736
4 24 -0.000667464 -0.000349755
4 25 -0.000809757 0.000170533
4 26 -0.000961831 0.000729007
4 27 -0.00108007 0.00130823
4 28 -0.00121412 0.0020054
4 29 -0.00132766 0.00278528
4 30 -0.00142545 0.00353021
4 31 -0.00147438 0.00431114
4 32 -0.0015503 0.00520617
4 33 -0.00158479 0.00608387
4 34 -0.00158562 0.00687614
4 35 -0.00154774 0.0077394
4 36 -0.0015547 0.00865653
4 37 -0.00149075 0.00944405
4 38 -0.001404 0.010164
4 39 -0.00131139 0.0109862
4 40 -0.00126358 0.0117419
4 41 -0.00111473 0.0123093
4 42 -0.000993929 0.0129054
4 43 -0.000892007 0.0135747
4 44 -0.000801262 0.0140288
4 45 -0.000606291 0.0143596
4 46 -0.000518685 0.0148312
4 47 -0.000420972 0.0152304
4 48 -0.000289595 0.0153365
4 49 -0.000110509 0.015522
4 50 -9.41512e-005 0.0158386
4 51 3.55583e-005 0.0158576
4 52 0.000182539 0.0157105
4 53 0.000276046 0.0158581
4 54 0.000254274 0.0158908
4 55 0.00046101 0.0155177
4 56 0.000540679 0.0153345
4 57 0.000529636 0.0154146
4 58 0.000569398 0.0149945
4 59 0.000819491 0.014429
4 60 0.000725608 0.0143858
4 61 0.000710173 0.014158
4 62 0.000878348 0.0132926
4 63 0.00101678 0.0129045
4 64 0.0007464 0.0128974
4 65 0.000913655 0.0120909
4 66 0.00110352 0.0111507
4 67 0.00096583 0.011181
4 68 0.000718461 0.0107841
4 69 0.00115328 0.00947987
4 70 0.00108226 0.00905406
4 71 0.000716925 0.00926887
4 72 0.000779442 0.00809392
4 73 0.00129004 0.00692346
4 74 0.000727849 0.0073218
4 75 0.0004748 0.00704216
4 76 0.00094614 0.00525761
4 77 0.00112815 0.00508826
4 78 0.000145169 0.00591315
4 79 0.000460942 0.00453741
4 80 0.00109946 0.00302896
4 81 0.000515108 0.00433621
4 82 -0.000436266 0.00455668
4 83 0.000842343 0.00215931
4 84 0.000981158 0.00222928
4 85 -0.00074232 0.00461148
4 86 -0.000685003 0.00303595
4 87 0.00167557 0.000725535
4 88 -7.38208e-005 0.00374383
4 89 -0.00291094 0.00551708
4 90 5.00753e-005 0.00125088
4 91 0.00215551 0.00157031
4 92 -0.00339324 0.00894862
4 93 -0.00511202 0.0072914
4 94 -0.000919576 0.00159467
4 95 -0.0104202 0.0117537
4 96 -0.0165 0.0112795
4 97 -0.00980966 -0.0102949
4 98 0.0100196 -0.0180237
4 99 0.0930555 -0.00112808
4 100 0.1 0
5 0 0 0
5 1 -6.63986e-006 5.67923e-006
5 2 9.8299e-005 9.14556e-006
5 3 0.000166908 -7.82819e-005
5 4 0.000240871 -0.000185828
5 5 0.000311368 -0.000304264
5 6 0.000352031 -0.000431184
5 7 0.000388595 -0.000586189
5 8 0.000416852 -0.000748577
5 9 0.000447465 -0.000918179
5 10 0.000446101 -0.00107896
5 11 0.000454496 -0.0012431
5 12 0.000447706 -0.00139419
5 13 0.00042505 -0.00152518
5 14 0.000368895 -0.00162532
5 15 0.000321219 -0.00170225
5 16 0.00023597 -0.00173029
5 17 0.000121566 -0.00170124
5 18 -1.57523e-005 -0.00161766
5 19 -0.000150616 -0.00147584
5 20 -0.000338691 -0.00124713
5 21 -0.000540743 -0.000940084
5 22 -0.000741843 -0.00056709
5 23 -0.000945252 -0.000108995
5 24 -0.00119408 0.000447727
5 25 -0.00141356 0.00107045
5 26 -0.00160961 0.00175114
5 27 -0.00181259 0.00252044
5 28 -0.00202915 0.00336105
5 29 -0.00216667 0.00422441
5 30 -0.00228206 0.00512344
5 31 -0.00240829 0.00608979
5 32 -0.00250404 0.00706705
5 33 -0.00249826 0.00801495
5 34 -0.00250338 0.00897855
5 35 -0.00251244 0.00996762
5 36 -0.0024545 0.0108958
5 37 -0.00231844 0.0117693
5 38 -0.00224234 0.0126505
5 39 -0.00213998 0.0134993
5 40 -0.00195783 0.0142375
5 41 -0.00176342 0.0149416
5 42 -0.00165748 0.0156415
5 43 -0.00146551 0.0162445
5 44 -0.00122908 0.0167407
5 45 -0.00106019 0.0172515
5 46 -0.000944085 0.0177108
5 47 -0.000683816 0.0180312
5 48 -0.000483696 0.0183129
5 49 -0.00037989 0.0186294
5 50 -0.000223373 0.0188063
5 51 5.89843e-005 0.0188754
5 52 0.000141181 0.019001
5 53 0.000224244 0.0190907
5 54 0.000453476 0.0189717
5 55 0.000660712 0.0188804
5 56 0.000612688 0.0188667
5 57 0.000784094 0.0186598
5 58 0.00103332 0.0183064
5 59 0.00106074 0.0181531
5 60 0.000990982 0.0179192
5 61 0.00131872 0.0173849
5 62 0.00141862 0.0169546
5 63 0.00127137 0.0167418
5 64 0.00136389 0.0161456
5 65 0.00174199 0.0154097
5 66 0.00151652 0.0150704
5 67 0.00139602 0.0146331
5 68 0.00173448 0.0136391
5 69 0.00186976 0.0130095
5 70 0.00135012 0.0127586
5 71 0.001569 0.0118628
5 72 0.0019395 0.0107294
5 73 0.00156748 0.010516
5 74 0.0011227 0.0100737
5 75 0.00180815 0.00868938
5 76 0.00171737 0.00796172
5 77 0.000946515 0.00816711
5 78 0.0010996 0.00711257
5 79 0.00190764 0.00565441
5 80 0.000937203 0.00589175
5 81 0.000355708 0.00600279
5 82 0.00136183 0.00409714
5 83 0.00150699 0.00347154
5 84 -0.000288513 0.00484137
5 85 9.59884e-005 0.00387291
5 86 0.00167526 0.00143471
5 87 0.000123319 0.0029395
5 88 -0.0018575 0.00476405
5 89 0.000237586 0.00164678
5 90 0.00129511 0.000258598
5 91 -0.00295487 0.00506592
5 92 -0.00470618 0.00496585
5 93 -0.000270299 0.0011616
5 94 -0.00499226 0.00659251
5 95 -0.0153357 0.0059858
5 96 -0.000876976 -0.00329714
5 97 -0.00975955 0.00090352
5 98 0.00306196 0.00794255
5 99 0.0871487 0.00127897
5 100 0.1 0
6 0 0 0
6 1 -6.77635e-006 5.36639e-007
6 2 0.000145479 -4.14578e-005
6 3 0.000256365 -0.000103226
6 4 0.000359175 -0.000204854
6 5 0.000429988 -0.000340252
6 6 0.000501257 -0.000476263
6 7 0.000545499 -0.000640945
6 8 0.00057636 -0.000807193
6 9 0.000595536 -0.000959174
6 10 0.000604889 -0.00110383
6 11 0.000591544 -0.00125877
6 12 0.000559323 -0.00137182
6 13 0.000507913 -0.00144392
6 14 0.000431107 -0.00149775
6 15 0.000320397 -0.00151259
6 16 0.000180537 -0.00143841
6 17 1.45624e-005 -0.00131161
6 18 -0.000183726 -0.00114107
6 19 -0.000418004 -0.000872667
6 20 -0.000671868 -0.000498482
6 21 -0.000941495 -7.96001e-005
6 22 -0.00123184 0.000415636
6 23 -0.00153969 0.00103984
6 24 -0.00183516 0.00173535
6 25 -0.00212376 0.00245649
6 26 -0.00240817 0.00328015
6 27 -0.00268011 0.00420822
6 28 -0.00290212 0.00513278
6 29 -0.0030967 0.00607192
6 30 -0.00326562 0.00711485
6 31 -0.00340055 0.00817971
6 32 -0.00345936 0.00916692
6 33 -0.00349111 0.0101797
6 34 -0.00349442 0.011258
6 35 -0.00345444 0.01225
6 36 -0.00333768 0.0131419
6 37 -0.00322562 0.0140903
6 38 -0.00308674 0.0150224
6 39 -0.00290388 0.0157873
6 40 -0.00267563 0.0165094
6 41 -0.00249204 0.0173023
6 42 -0.0022638 0.0179621
6 43 -0.00200797 0.0184602
6 44 -0.00175864 0.0190246
6 45 -0.00156203 0.0195962
6 46 -0.00128531 0.0199332
6 47 -0.00103439 0.0202341
6 48 -0.000825948 0.0206659
6 49 -0.000623387 0.0209439
6 50 -0.00033234 0.0210008
6 51 -0.000155114 0.0212186
6 52 1.6058e-005 0.0214684
6 53 0.000246914 0.0214027
6 54 0.000494214 0.0213199
6 55 0.000570835 0.0214991
6 56 0.000771049 0.0214298
6 57 0.00101452 0.0210805
6 58 0.00114223 0.0210238
6 59 0.00117471 0.02104
6 60 0.00146459 0.0205417
6 61 0.00161904 0.0201249
6 62 0.00160705 0.0201228
6 63 0.00171879 0.0197164
6 64 0.00204978 0.0188922
6 65 0.00197758 0.0186634
6 66 0.00193682 0.0184723
6 67 0.00220455 0.0174847
6 68 0.00238338 0.016721
6 69 0.00205453 0.0167052
6 70 0.00219276 0.0159074
6 71 0.00251084 0.0145912
6 72 0.00231336 0.0143379
6 73 0.00191721 0.0141252
6 74 0.00238132 0.0125429
6 75 0.00243301 0.0116334
6 76 0.00181734 0.0119257
6 77 0.00172053 0.0108654
6 78 0.00241774 0.00903499
6 79 0.00179985 0.0092988
6 80 0.00107329 0.00942123
6 81 0.00162698 0.00729225
6 82 0.00210893 0.00646822
6 83 0.000531384 0.00790266
6 84 0.000416106 0.00670846
6 85 0.00165936 0.00436558
6 86 0.000977976 0.00586591
6 87 -0.00142462 0.0072175
6 88 0.000280908 0.00403715
6 89 0.00120395 0.00354975
6 90 -0.00234092 0.00780138
6 91 -0.00376473 0.00716676
6 92 0.000228403 0.00324192
6 93 -0.00471879 0.0072886
6 94 -0.00977793 0.0108637
6 95 -0.0059656 0.00660441
6 96 -0.000618321 0.00932599
6 97 -0.0154111 0.0127786
6 98 0.0101469 0.00212187
6 99 0.0937796 -0.000491684
6 100 0.1 0
7 0 0 0
7 1 8.60307e-006 4.95578e-006
7 2 0.000198083 -3.17789e-006
7 3 0.000355638 -0.000100844
7 4 0.000489224 -0.000211406
7 5 0.000575471 -0.000347126
7 6 0.000655579 -0.000491469
7 7 0.000710785 -0.000644442
7 8 0.000741267 -0.000789312
7 9 0.000747733 -0.000941627
7 10 0.000747772 -0.00107314
7 11 0.000713229 -0.00117555
7 12 0.000644697 -0.00124517
7 13 0.000554623 -0.00128933
7 14 0.000435549 -0.001271
7 15 0.000261245 -0.00118875
7 16 5.38284e-005 -0.0010509
7 17 -0.000177955 -0.00084665
7 18 -0.000455791 -0.000541587
7 19 -0.000782468 -0.000157064
7 20 -0.00111579 0.00029687
7 21 -0.00146805 0.000849602
7 22 -0.00185608 0.00151106
7 23 -0.00225203 0.00223758
7 24 -0.00261234 0.00303379
7 25 -0.00298049 0.00393306
7 26 -0.00334864 0.00490643
7 27 -0.00366575 0.00590504
7 28 -0.00391457 0.00695423
7 29 -0.00416729 0.00807231
7 30 -0.00437112 0.00919629
7 31 -0.00448168 0.0102954
7 32 -0.0045305 0.0114134
7 33 -0.00458772 0.0125405
7 34 -0.00455414 0.0136009
7 35 -0.0044363 0.0146084
7 36 -0.00429994 0.0156098
7 37 -0.0041729 0.0165575
7 38 -0.00393365 0.0173987
7 39 -0.00367145 0.0182011
7 40 -0.00343526 0.0189772
7 41 -0.00318669 0.0196506
7 42 -0.00283445 0.0202318
7 43 -0.00254931 0.0208121
7 44 -0.00228639 0.0213294
7 45 -0.00197277 0.0217258
7 46 -0.00161139 0.0220933
7 47 -0.00138759 0.022475
7 48 -0.00110867 0.0227348
7 49 -0.000776376 0.0229122
7 50 -0.000492455 0.0231362
7 51 -0.000333196 0.0233225
7 52 -8.51199e-006 0.0233442
7 53 0.00027541 0.023391
7 54 0.00044658 0.0235003
7 55 0.000614042 0.0234561
7 56 0.000982096 0.0232945
7 57 0.00113173 0.0232869
7 58 0.00124437 0.023225
7 59 0.00149877 0.0229202
7 60 0.00182021 0.0226777
7 61 0.00179575 0.0226102
7 62 0.00198226 0.0222516
7 63 0.00230139 0.0217414
7 64 0.00243156 0.0215183
7 65 0.00231524 0.0212463
7 66 0.00268812 0.0205092
7 67 0.00288873 0.0199721
7 68 0.00275541 0.0197433
7 69 0.00274938 0.0190397
7 70 0.00325353 0.0180467
7 71 0.00306216 0.0176852
7 72 0.00281257 0.0172146
7 73 0.00310324 0.0159914
7 74 0.00342113 0.015117
7 75 0.00270541 0.0149453
7 76 0.0027429 0.0139059
7 77 0.00323946 0.0124536
7 78 0.00290633 0.0121319
7 79 0.00196504 0.0118432
7 80 0.00271234 0.0101298
7 81 0.00282141 0.00912616
7 82 0.00164349 0.00950734
7 83 0.00123829 0.00858539
7 84 0.00262679 0.00657724
7 85 0.00138723 0.00684293
7 86 -0.000131736 0.0074822
7 87 0.000736189 0.005481
7 88 0.00176203 0.00427767
7 89 -0.00154348 0.00639984
7 90 -0.00242899 0.00585725
7 91 -0.000647143 0.00303593
7 92 -0.00210557 0.00537371
7 93 -0.00836077 0.0075594
7 94 -0.00481783 0.0031994
7 95 -0.00814611 0.0032586
7 96 -0.0128304 0.00964958
7 97 -0.0106387 0.0134227
7 98 0.0201368 0.00846484
7 99 0.0964465 -0.000158131
7 100 0.1 0
8 0 0 0
8 1 7.48227e-006 1.81302e-006
8 2 0.000255779 -4.19003e-005
8 3 0.000447429 -0.000114893
8 4 0.000598093 -0.00019979
8 5 0.000717838 -0.000330382
8 6 0.000794573 -0.000472841
8 7 0.000845244 -0.000608741
8 8 0.000873776 -0.000726556
8 9 0.000872462 -0.000851304
8 10 0.000831993 -0.000941584
8 11 0.000768307 -0.000988454
8 12 0.000668997 -0.00100158
8 13 0.000523638 -0.000978644
8 14 0.000329244 -0.000870558
8 15 0.000103653 -0.000694941
8 16 -0.000172376 -0.000464475
8 17 -0.000501701 -0.00014616
8 18 -0.000869751 0.000286048
8 19 -0.00125989 0.000786636
8 20 -0.0016924 0.0013644
8 21 -0.00215533 0.00206497
8 22 -0.00261719 0.00286502
8 23 -0.00307324 0.00371234
8 24 -0.00353891 0.00465066
8 25 -0.00398681 0.0057024
8 26 -0.00438128 0.0067885
8 27 -0.00473734 0.00788655
8 28 -0.00506012 0.00906567
8 29 -0.00532061 0.0102892
8 30 -0.00549297 0.0114547
8 31 -0.00561072 0.0126056
8 32 -0.00567465 0.0138009
8 33 -0.00566339 0.0149391
8 34 -0.00556448 0.0159591
8 35 -0.00543249 0.0169738
8 36 -0.00525437 0.0179791
8 37 -0.00501353 0.0188429
8 38 -0.00472104 0.0196064
8 39 -0.00443792 0.0203982
8 40 -0.00411448 0.0211073
8 41 -0.00375532 0.0216509
8 42 -0.00339733 0.0221834
8 43 -0.00307108 0.0227441
8 44 -0.00269192 0.0231387
8 45 -0.0023234 0.0234362
8 46 -0.00199547 0.0238174
8 47 -0.00167445 0.0241432
8 48 -0.00129445 0.0242693
8 49 -0.000994142 0.0244495
8 50 -0.000718496 0.0247122
8 51 -0.000396202 0.0247825
8 52 -6.21369e-005 0.0247491
8 53 0.000139281 0.0249091
8 54 0.000411719 0.0249915
8 55 0.000736981 0.0248235
8 56 0.000970689 0.024776
8 57 0.00111377 0.0248903
8 58 0.00144901 0.0246872
8 59 0.00171593 0.0243987
8 60 0.00182801 0.0244188
8 61 0.00201767 0.0243157
8 62 0.00240526 0.0238107
8 63 0.00250497 0.0235884
8 64 0.00256928 0.0235675
8 65 0.00288853 0.0230438
8 66 0.00318767 0.0224144
8 67 0.00306648 0.0223496
8 68 0.00324043 0.0219728
8 69 0.00362457 0.0210192
8 70 0.00363162 0.0205764
8 71 0.00339279 0.0204711
8 72 0.00379345 0.0194275
8 73 0.00398437 0.0184038
8 74 0.00360378 0.0183235
8 75 0.00349783 0.017682
8 76 0.0040482 0.016062
8 77 0.00370192 0.0156004
8 78 0.00310697 0.0155813
8 79 0.00338785 0.0139807
8 80 0.00374788 0.0125789
8 81 0.00263756 0.0130664
8 82 0.00231738 0.0122772
8 83 0.00302754 0.0100404
8 84 0.00258071 0.0100891
8 85 0.000802585 0.0109698
8 86 0.00153611 0.00869138
8 87 0.00207673 0.00729527
8 88 -0.000156728 0.00937402
8 89 -0.00161245 0.00913075
8 90 0.000823519 0.00604347
8 91 -0.00179248 0.00743649
8 92 -0.00562082 0.00966508
8 93 -0.0041976 0.00679994
8 94 -0.00259153 0.00587233
8 95 -0.012447 0.00899747
8 96 -0.0120598 0.0057006
8 97 -0.00361046 1.36668e-005
8 98 0.0222015 -0.00533175
8 99 0.096682 -0.00102504
8 100 0.1 0
9 0 0 0
9 1 1.3012e-005 3.9851e-006
9 2 0.000311286 -1.73991e-006
9 3 0.000545242 -8.50531e-005
9 4 0.000711422 -0.000192925
9 5 0.000849588 -0.000310549
9 6 0.000927999 -0.000415259
9 7 0.000974334 -0.000536854
9 8 0.000984091 -0.000643447
9 9 0.000965211 -0.000719159
9 10 0.000889197 -0.000758014
9 11 0.000784351 -0.000776713
9 12 0.00063244 -0.000730628
9 13 0.000429375 -0.000614037
9 14 0.000163042 -0.000440451
9 15 -0.000136565 -0.000203422
9 16 -0.000498898 0.000144427
9 17 -0.000916541 0.000581372
9 18 -0.00137804 0.00108942
9 19 -0.00186266 0.00170312
9 20 -0.00239835 0.0024456
9 21 -0.00295475 0.00326481
9 22 -0.00350608 0.0041605
9 23 -0.00405061 0.0051773
9 24 -0.004603 0.00628815
9 25 -0.00511078 0.00742921
9 26 -0.00555142 0.00862678
9 27 -0.00595433 0.00990431
9 28 -0.00631045 0.0111877
9 29 -0.00655743 0.0124349
9 30 -0.0067108 0.0136943
9 31 -0.00682352 0.0149531
9 32 -0.00685005 0.016124
9 33 -0.00675561 0.0172197
9 34 -0.00660364 0.0182937
9 35 -0.00642998 0.0192932
9 36 -0.00615982 0.0201613
9 37 -0.00581802 0.0209737
9 38 -0.00548299 0.0217475
9 39 -0.00513353 0.0224017
9 40 -0.00469994 0.0229503
9 41 -0.00427692 0.0234942
9 42 -0.00389524 0.0239717
9 43 -0.00347655 0.0243222
9 44 -0.00301572 0.024644
9 45 -0.00263889 0.0249869
9 46 -0.00227139 0.0252137
9 47 -0.00184664 0.0253604
9 48 -0.00145637 0.0255617
9 49 -0.00116285 0.025742
9 50 -0.00079856 0.0257695
9 51 -0.000416238 0.025824
9 52 -0.000139558 0.0259571
9 53 0.000119579 0.0259654
9 54 0.00049804 0.0258615
9 55 0.000782731 0.0259092
9 56 0.000977551 0.0259402
9 57 0.00128121 0.0257588
9 58 0.00163465 0.0256195
9 59 0.00179133 0.0256682
9 60 0.00200409 0.025494
9 61 0.00237257 0.0251621
9 62 0.00260729 0.0250748
9 63 0.00268431 0.0250088
9 64 0.00301384 0.0245396
9 65 0.00334809 0.0241849
9 66 0.00339367 0.0241313
9 67 0.00352167 0.0237375
9 68 0.00395776 0.0230178
9 69 0.00406672 0.0227858
9 70 0.00397094 0.0225519
9 71 0.00428058 0.0216744
9 72 0.00462684 0.0209409
9 73 0.00435193 0.0208193
9 74 0.00432161 0.0200595
9 75 0.0047952 0.0188274
9 76 0.00469458 0.0183831
9 77 0.00410199 0.0180727
9 78 0.00443054 0.0166112
9 79 0.00472512 0.0155247
9 80 0.00388283 0.015453
9 81 0.00342526 0.014512
9 82 0.00419394 0.0126788
9 83 0.003597 0.0123759
9 84 0.00223192 0.0123332
9 85 0.0025513 0.0105471
9 86 0.00310988 0.00922398
9 87 0.000997903 0.0100752
9 88 6.12215e-005 0.00925488
9 89 0.00106322 0.00692906
9 90 -9.19762e-005 0.00755243
9 91 -0.00367995 0.008837
9 92 -0.00261894 0.00583631
9 93 -0.00342496 0.00499827
9 94 -0.00779856 0.00809543
9 95 -0.00848853 0.00635266
9 96 -0.00654792 0.000588769
9 97 -0.00466578 0.00296899
9 98 0.0217562 0.00506983
9 99 0.096533 -7.02575e-005
9 100 0.1 0
10 0 0 0
10 1 1.71138e-005 8.68557e-007
10 2 0.000351868 -2.76776e-005
10 3 0.000628978 -8.37361e-005
10 4 0.000812343 -0.000162501
10 5 0.000948108 -0.000262023
10 6 0.00102746 -0.000350145
10 7 0.00107344 -0.000444053
10 8 0.00104992 -0.000511027
10 9 0.000995021 -0.000543594
10 10 0.000890099 -0.000534769
10 11 0.000735414 -0.000491752
10 12 0.0005069 -0.000373673
10 13 0.000242168 -0.000184467
10 14 -8.92158e-005 7.29782e-005
10 15 -0.000486931 0.000412457
10 16 -0.000951728 0.000865125
10 17 -0.00144695 0.00140765
10 18 -0.00200754 0.00204267
10 19 -0.00261731 0.00279763
10 20 -0.00325143 0.00367323
10 21 -0.00388382 0.004631
10 22 -0.0045441 0.0056867
10 23 -0.00519402 0.00685818
10 24 -0.00579362 0.008099
10 25 -0.00634071 0.00936926
10 26 -0.00685236 0.0107003
10 27 -0.00727885 0.0120759
10 28 -0.00759468 0.0134135
10 29 -0.00782583 0.0147083
10 30 -0.00797862 0.0160042
10 31 -0.00801781 0.0172439
10 32 -0.00794389 0.0183562
10 33 -0.00780383 0.0194008
10 34 -0.00759373 0.0204054
10 35 -0.00729371 0.0212821
10 36 -0.00692875 0.0220225
10 37 -0.00654982 0.0227322
10 38 -0.00612475 0.0233746
10 39 -0.00565357 0.0238677
10 40 -0.00518116 0.0242935
10 41 -0.00473057 0.0247316
10 42 -0.00423997 0.0250621
10 43 -0.00375363 0.0252817
10 44 -0.00331196 0.0255311
10 45 -0.00288138 0.0257767
10 46 -0.00241052 0.0258786
10 47 -0.00200314 0.0259723
10 48 -0.00163804 0.0261439
10 49 -0.00123771 0.0262268
10 50 -0.000830421 0.0261968
10 51 -0.000534001 0.0262828
10 52 -0.000208951 0.0263791
10 53 0.000175365 0.0263089
10 54 0.000483229 0.0262599
10 55 0.000702726 0.0263663
10 56 0.00105855 0.0263157
10 57 0.00140197 0.0261485
10 58 0.00159507 0.026166
10 59 0.00183356 0.0261993
10 60 0.00224459 0.0259487
10 61 0.00247246 0.025803
10 62 0.00260457 0.0258565
10 63 0.00295981 0.0256538
10 64 0.0033397 0.0252674
10 65 0.0033969 0.0252359
10 66 0.00360004 0.0251302
10 67 0.0040609 0.024603
10 68 0.00423855 0.0242623
10 69 0.00418327 0.0242631
10 70 0.00457531 0.0237275
10 71 0.00495 0.023005
10 72 0.00479751 0.0228555
10 73 0.00481424 0.0225622
10 74 0.0053462 0.0214875
10 75 0.00531946 0.0209198
10 76 0.00490461 0.0208373
10 77 0.00518321 0.0198413
10 78 0.00554826 0.0185456
10 79 0.00487556 0.0184714
10 80 0.00452419 0.0179472
10 81 0.00506179 0.0162001
10 82 0.0047547 0.0154716
10 83 0.0034844 0.0157642
10 84 0.00371235 0.0141917
10 85 0.0041024 0.0125163
10 86 0.00250934 0.0130309
10 87 0.00124276 0.0127697
10 88 0.00253034 0.010328
10 89 0.0013075 0.0102381
10 90 -0.00180251 0.0112211
10 91 -0.00133698 0.00938092
10 92 -0.00023244 0.00782785
10 93 -0.00557409 0.00923036
10 94 -0.00733309 0.00770969
10 95 -0.00344601 0.00620411
10 96 -0.0076455 0.00751575
10 97 -0.00432259 0.00613183
10 98 0.0266455 -0.000516299
10 99 0.0984638 -0.00092208
10 100 0.1 0
11 0 0 0
11 1 2.38962e-005 3.18188e-006
11 2 0.000394934 -5.01075e-006
11 3 0.000698936 -7.00545e-005
11 4 0.000899142 -0.00013114
11 5 0.00104192 -0.000210648
11 6 0.0011101 -0.000286678
11 7 0.00113869 -0.000342468
11 8 0.00109024 -0.000361878
11 9 0.000997889 -0.00036985
11 10 0.000839655 -0.000321505
11 11 0.000628409 -0.00020153
11 12 0.000334498 -2.05551e-005
11 13 -1.00834e-005 0.000216136
11 14 -0.000433446 0.000565708
11 15 -0.000921907 0.00101851
11 16 -0.00148607 0.00155108
11 17 -0.00209473 0.00219197
11 18 -0.00277166 0.00298391
11 19 -0.00348765 0.00387917
11 20 -0.00423248 0.00486341
11 21 -0.00497904 0.00598438
11 22 -0.00573624 0.00723092
11 23 -0.00645925 0.00852389
11 24 -0.00712338 0.00987291
11 25 -0.00772012 0.0113094
11 26 -0.00825123 0.0127583
11 27 -0.00866336 0.0141511
11 28 -0.0089491 0.0155308
11 29 -0.00914222 0.0168952
11 30 -0.00922919 0.0181449
11 31 -0.00917036 0.0192742
11 32 -0.00900702 0.0203514
11 33 -0.00878615 0.021333
11 34 -0.00846612 0.022146