Title= "LBM Lid Driven Flow"
VARIABLES="X","Y","U","V"
ZONE T="BOX",I=101,J=101,F=POINT
0 0 0 0
0 1 0 0
0 2 0 0
0 3 0 0
0 4 0 0
0 5 0 0
0 6 0 0
0 7 0 0
0 8 0 0
0 9 0 0
0 10 0 0
0 11 0 0
0 12 0 0
0 13 0 0
0 14 0 0
0 15 0 0
0 16 0 0
0 17 0 0
0 18 0 0
0 19 0 0
0 20 0 0
0 21 0 0
0 22 0 0
0 23 0 0
0 24 0 0
0 25 0 0
0 26 0 0
0 27 0 0
0 28 0 0
0 29 0 0
0 30 0 0
0 31 0 0
0 32 0 0
0 33 0 0
0 34 0 0
0 35 0 0
0 36 0 0
0 37 0 0
0 38 0 0
0 39 0 0
0 40 0 0
0 41 0 0
0 42 0 0
0 43 0 0
0 44 0 0
0 45 0 0
0 46 0 0
0 47 0 0
0 48 0 0
0 49 0 0
0 50 0 0
0 51 0 0
0 52 0 0
0 53 0 0
0 54 0 0
0 55 0 0
0 56 0 0
0 57 0 0
0 58 0 0
0 59 0 0
0 60 0 0
0 61 0 0
0 62 0 0
0 63 0 0
0 64 0 0
0 65 0 0
0 66 0 0
0 67 0 0
0 68 0 0
0 69 0 0
0 70 0 0
0 71 0 0
0 72 0 0
0 73 0 0
0 74 0 0
0 75 0 0
0 76 0 0
0 77 0 0
0 78 0 0
0 79 0 0
0 80 0 0
0 81 0 0
0 82 0 0
0 83 0 0
0 84 0 0
0 85 0 0
0 86 0 0
0 87 0 0
0 88 0 0
0 89 0 0
0 90 0 0
0 91 0 0
0 92 0 0
0 93 0 0
0 94 0 0
0 95 0 0
0 96 0 0
0 97 0 0
0 98 0 0
0 99 0 0
0 100 0.1 0
1 0 0 0
1 1 -5.94459e-006 2.27711e-006
1 2 3.12286e-007 3.36983e-005
1 3 -3.16652e-006 1.40906e-005
1 4 -4.24497e-007 8.60413e-007
1 5 -3.67618e-006 -6.12853e-006
1 6 -1.10589e-007 -6.93331e-006
1 7 -2.76581e-006 -2.68492e-006
1 8 1.76041e-006 -5.56185e-006
1 9 -1.27196e-006 -1.68067e-005
1 10 2.17106e-006 -8.8214e-006
1 11 6.85152e-007 -2.16556e-006
1 12 5.04393e-006 -1.38117e-005
1 13 1.48105e-006 -1.73713e-005
1 14 5.87862e-006 3.15798e-007
1 15 4.73903e-006 -3.08945e-006
1 16 8.14801e-006 -1.79303e-005
1 17 4.43703e-006 -4.61306e-006
1 18 1.03156e-005 1.12057e-005
1 19 7.97193e-006 -6.52407e-006
1 20 1.0605e-005 -9.65544e-006
1 21 7.52398e-006 1.83794e-005
1 22 1.43798e-005 1.69694e-005
1 23 9.34635e-006 -5.30507e-006
1 24 1.25719e-005 1.5865e-005
1 25 1.03262e-005 4.1712e-005
1 26 1.67112e-005 1.63574e-005
1 27 8.61881e-006 1.10295e-005
1 28 1.45172e-005 5.32985e-005
1 29 1.18298e-005 5.30932e-005
1 30 1.63754e-005 1.68237e-005
1 31 6.61126e-006 4.77383e-005
1 32 1.66502e-005 8.56245e-005
1 33 1.07021e-005 4.70731e-005
1 34 1.3753e-005 3.18194e-005
1 35 4.84676e-006 9.60286e-005
1 36 1.84123e-005 9.2353e-005
1 37 6.22765e-006 3.32376e-005
1 38 1.09132e-005 7.05436e-005
1 39 4.48181e-006 0.000131819
1 40 1.86151e-005 6.52755e-005
1 41 -6.21089e-007 3.46208e-005
1 42 1.08377e-005 0.000125391
1 43 5.20894e-006 0.000127131
1 44 1.64213e-005 2.11737e-005
1 45 -6.87148e-006 7.29976e-005
1 46 1.57125e-005 0.000166718
1 47 5.00608e-006 7.06684e-005
1 48 1.27345e-005 2.76576e-007
1 49 -8.47557e-006 0.000146615
1 50 2.50924e-005 0.000153564
1 51 1.34616e-006 -1.25359e-005
1 52 1.12186e-005 4.40122e-005
1 53 -2.5939e-006 0.000214995
1 54 3.52791e-005 6.31299e-005
1 55 -6.20181e-006 -5.93676e-005
1 56 1.76662e-005 0.000157785
1 57 9.6047e-006 0.00021053
1 58 4.13319e-005 -7.49132e-005
1 59 -1.36371e-005 1.11084e-006
1 60 3.70415e-005 0.000282881
1 61 2.18018e-005 8.29761e-005
1 62 4.13845e-005 -0.000167404
1 63 -1.2661e-005 0.000191489
1 64 6.93031e-005 0.000306461
1 65 2.50193e-005 -0.000142368
1 66 4.09091e-005 -9.28225e-005
1 67 5.71118e-006 0.000432941
1 68 0.000106598 0.000122627
1 69 1.38341e-005 -0.000329693
1 70 5.40953e-005 0.000215437
1 71 4.47394e-005 0.000536377
1 72 0.000135018 -0.000270781
1 73 -6.04889e-006 -0.000259745
1 74 0.000100538 0.000664435
1 75 9.53401e-005 0.00027202
1 76 0.000142963 -0.000683423
1 77 -1.24156e-005 0.000255629
1 78 0.000196742 0.000931593
1 79 0.000134338 -0.000478868
1 80 0.000134742 -0.000711105
1 81 3.49074e-005 0.00116917
1 82 0.000343543 0.000490558
1 83 0.000133885 -0.00152496
1 84 0.000146261 0.000158902
1 85 0.000194842 0.0019049
1 86 0.00051211 -0.0012399
1 87 8.47222e-005 -0.00211168
1 88 0.000274523 0.00219856
1 89 0.000549495 0.000861191
1 90 0.000626794 -0.00452476
1 91 2.86024e-005 -0.000245326
1 92 0.000744898 0.00484984
1 93 0.00123562 -0.0056357
1 94 0.000759048 -0.0110093
1 95 5.12861e-005 0.0068814
1 96 0.00249414 0.00313391
1 97 0.00228267 -0.0234062
1 98 -0.00301788 0.0338853
1 99 0.00729521 0.0123581
1 100 0.1 0
2 0 0 0
2 1 -4.22788e-005 -5.08013e-006
2 2 1.72632e-005 -2.6869e-005
2 3 -8.07295e-006 -2.96131e-005
2 4 2.63537e-005 -5.73516e-005
2 5 -1.80464e-005 -8.38468e-005
2 6 2.52105e-005 -0.000100125
2 7 -1.93998e-005 -0.000130108
2 8 1.89297e-005 -0.000149315
2 9 -1.85257e-005 -0.000148249
2 10 1.64388e-005 -0.000154072
2 11 -2.42789e-005 -0.000169147
2 12 1.4953e-005 -0.000154735
2 13 -2.47423e-005 -0.000132461
2 14 9.4588e-006 -0.000129248
2 15 -2.86717e-005 -0.000114218
2 16 9.82906e-006 -6.51819e-005
2 17 -3.38935e-005 -3.28421e-005
2 18 5.46384e-006 -1.30081e-005
2 19 -3.6244e-005 4.32313e-005
2 20 3.50335e-006 0.000114798
2 21 -4.37337e-005 0.000150052
2 22 3.37687e-006 0.000201174
2 23 -4.81585e-005 0.000296108
2 24 -6.90323e-007 0.000368639
2 25 -5.25971e-005 0.000410153
2 26 2.10832e-006 0.000503405
2 27 -6.20504e-005 0.000613657
2 28 1.76843e-006 0.000667536
2 29 -6.08665e-005 0.000729373
2 30 2.08418e-006 0.000856968
2 31 -7.29042e-005 0.000943962
2 32 1.30736e-005 0.000976686
2 33 -7.10897e-005 0.00107313
2 34 6.5949e-006 0.00120026
2 35 -7.64851e-005 0.00123129
2 36 3.03239e-005 0.00126463
2 37 -8.55551e-005 0.00139164
2 38 2.13705e-005 0.0014656
2 39 -7.40114e-005 0.00144044
2 40 4.68521e-005 0.00150866
2 41 -0.000102714 0.00162899
2 42 5.10241e-005 0.00160842
2 43 -7.39749e-005 0.0015721
2 44 5.79824e-005 0.0016909
2 45 -0.000116541 0.00173925
2 46 9.46229e-005 0.00163191
2 47 -8.88379e-005 0.00165515
2 48 6.67493e-005 0.00178861
2 49 -0.000119936 0.00170794
2 50 0.000143168 0.00158995
2 51 -0.000128731 0.00171638
2 52 8.6661e-005 0.00177383
2 53 -0.000111475 0.00157082
2 54 0.0001797 0.00155954
2 55 -0.000192732 0.00174934
2 56 0.000138629 0.00163381
2 57 -0.00010474 0.00141426
2 58 0.000186407 0.00159326
2 59 -0.0002609 0.00170961
2 60 0.000238207 0.00140315
2 61 -0.000133611 0.00134649
2 62 0.000161919 0.00167718
2 63 -0.000296359 0.00154818
2 64 0.000375512 0.00118353
2 65 -0.00024351 0.00144355
2 66 0.000142971 0.00172255
2 67 -0.000265434 0.00127008
2 68 0.000497075 0.00112607
2 69 -0.000460522 0.00169034
2 70 0.000214568 0.00160903
2 71 -0.000177205 0.000984431
2 72 0.000506604 0.00136751
2 73 -0.000739982 0.00194898
2 74 0.000486534 0.00127448
2 75 -0.000134149 0.000909875
2 76 0.000312709 0.00193237
2 77 -0.000920797 0.00198776
2 78 0.00101844 0.000821171
2 79 -0.000368307 0.00132003
2 80 -5.17062e-005 0.00263727
2 81 -0.000730371 0.00159265
2 82 0.00167805 0.000610615
2 83 -0.00121039 0.00245412
2 84 -0.000245737 0.00307185
2 85 0.000134721 0.000788793
2 86 0.00185952 0.00140657
2 87 -0.00288778 0.00448201
2 88 0.000638555 0.00283826
2 89 0.00177073 0.000372748
2 90 -0.000219413 0.00485795
2 91 -0.00513944 0.0079111
2 92 0.0046389 0.00263956
2 93 0.00476877 0.0025181
2 94 -0.00812766 0.0144489
2 95 -0.00934472 0.0176286
2 96 0.0157835 0.0134032
2 97 -0.0178267 0.0404496
2 98 -0.0253157 0.0350917
2 99 0.0906772 0.000711257
2 100 0.1 0
3 0 0 0
3 1 -1.33903e-005 -4.55707e-007
3 2 1.3901e-005 -3.28323e-006
3 3 2.89855e-005 -4.57156e-005
3 4 4.97629e-005 -8.36973e-005
3 5 2.54207e-005 -0.000120626
3 6 3.97445e-005 -0.00015706
3 7 2.13118e-005 -0.000190662
3 8 2.11176e-005 -0.000208102
3 9 -7.73177e-007 -0.000220371
3 10 1.13237e-005 -0.000228648
3 11 -1.51355e-005 -0.000223978
3 12 -1.66799e-005 -0.000200994
3 13 -3.11829e-005 -0.000180058
3 14 -2.37574e-005 -0.000151493
3 15 -5.7124e-005 -0.000101668
3 16 -5.16037e-005 -4.23457e-005
3 17 -6.35364e-005 1.07498e-005
3 18 -6.52862e-005 8.35304e-005
3 19 -9.98313e-005 0.00017673
3 20 -8.17498e-005 0.000264471
3 21 -0.000100137 0.000353298
3 22 -0.000108881 0.000472436
3 23 -0.000134264 0.000595908
3 24 -0.000104587 0.000704389
3 25 -0.000138176 0.000831792
3 26 -0.000142018 0.000984648
3 27 -0.000150267 0.00111648
3 28 -0.000118221 0.00124085
3 29 -0.000168863 0.00139997
3 30 -0.000149151 0.00155689
3 31 -0.000143754 0.0016761
3 32 -0.00012244 0.0018138
3 33 -0.000179669 0.00198113
3 34 -0.000121158 0.00210516
3 35 -0.000121849 0.00220367
3 36 -0.000117169 0.00234878
3 37 -0.000159777 0.00248557
3 38 -6.39401e-005 0.00255224
3 39 -0.000100478 0.00263943
3 40 -9.89868e-005 0.00277375
3 41 -0.000107032 0.00284025
3 42 3.90966e-007 0.00285581
3 43 -9.3616e-005 0.002948
3 44 -5.90073e-005 0.00303689
3 45 -3.39678e-005 0.00301548
3 46 4.25255e-005 0.00301903
3 47 -9.93845e-005 0.0031175
3 48 1.20455e-005 0.00311873
3 49 2.98336e-005 0.00303478
3 50 4.43541e-005 0.00307712
3 51 -9.50542e-005 0.00314782
3 52 0.000109462 0.00303765
3 53 4.65427e-005 0.00296415
3 54 1.74353e-005 0.00306648
3 55 -5.19008e-005 0.00304197
3 56 0.000203128 0.00285242
3 57 -7.58287e-006 0.00288245
3 58 5.19902e-006 0.00299441
3 59 3.66589e-005 0.00281524
3 60 0.00024432 0.00265717
3 61 -0.000117604 0.00283885
3 62 6.12228e-005 0.00283284
3 63 0.000133635 0.00252103
3 64 0.000193264 0.00255636
3 65 -0.000220745 0.00281433
3 66 0.000212355 0.00254952
3 67 0.000161294 0.00227184
3 68 5.5922e-005 0.0026119
3 69 -0.000226112 0.00271215
3 70 0.000427509 0.00216851
3 71 3.36921e-005 0.0022239
3 72 -9.00608e-005 0.00277153
3 73 -6.13299e-005 0.00239918
3 74 0.000609873 0.00182896
3 75 -0.000286636 0.00249498
3 76 -0.000100689 0.00281242
3 77 0.00027053 0.00180574
3 78 0.000612764 0.00179788
3 79 -0.000722599 0.00301079
3 80 0.00019231 0.00236126
3 81 0.000633609 0.00108389
3 82 0.000263441 0.00239865
3 83 -0.0010438 0.00333036
3 84 0.000928516 0.00107482
3 85 0.000654986 0.000853293
3 86 -0.000645597 0.00382822
3 87 -0.000905063 0.00255098
3 88 0.00218439 -0.000894995
3 89 -0.000601966 0.00263192
3 90 -0.00266537 0.00583081
3 91 -0.000301523 -0.000540861
3 92 0.00436664 -0.00180022
3 93 -0.00338736 0.0101442
3 94 -0.00992093 0.00847939
3 95 -0.0040507 -0.00505714
3 96 -0.00622552 0.0147272
3 97 -0.0346335 0.0269823
3 98 0.0101387 0.0120743
3 99 0.101318 -0.00010892
3 100 0.1 0
4 0 0 0
4 1 -7.81857e-007 -2.54941e-006
4 2 2.59805e-005 -4.31644e-005
4 3 5.77243e-005 -6.26416e-005
4 4 6.84734e-005 -8.15602e-005
4 5 7.16169e-005 -0.000130112
4 6 5.18042e-005 -0.000173815
4 7 4.52517e-005 -0.000190548
4 8 2.23534e-005 -0.000202661
4 9 8.64903e-006 -0.000224178
4 10 -1.49548e-005 -0.000212955
4 11 -2.6315e-005 -0.00018159
4 12 -5.30469e-005 -0.000163083
4 13 -6.60003e-005 -0.000133811
4 14 -8.98289e-005 -6.06059e-005
4 15 -0.000103917 8.1483e-006
4 16 -0.000130102 6.25326e-005
4 17 -0.000142329 0.000156348
4 18 -0.000168117 0.000280681
4 19 -0.000181556 0.000374612
4 20 -0.00020553 0.000477721
4 21 -0.000217146 0.00063725
4 22 -0.000241925 0.000788613
4 23 -0.000249214 0.000904283
4 24 -0.000270217 0.00106775
4 25 -0.000278088 0.00127087
4 26 -0.000295361 0.00142035
4 27 -0.000292599 0.00156467
4 28 -0.000310428 0.00178249
4 29 -0.000307977 0.00198391
4 30 -0.000312415 0.00211309
4 31 -0.000300342 0.00229593
4 32 -0.000314055 0.00253192
4 33 -0.000293803 0.00268075
4 34 -0.00028692 0.00279477
4 35 -0.000270572 0.00301256
4 36 -0.000276768 0.0032035
4 37 -0.000235441 0.00327328
4 38 -0.000228247 0.00339897
4 39 -0.000211592 0.00361713
4 40 -0.000204738 0.00369839
4 41 -0.000148801 0.00371232
4 42 -0.000157044 0.00387414
4 43 -0.000135896 0.00402318
4 44 -0.000113354 0.00397112
4 45 -5.99805e-005 0.00399957
4 46 -9.31522e-005 0.00418089
4 47 -5.33693e-005 0.00418247
4 48 -2.30321e-005 0.00405121
4 49 5.90446e-006 0.00416644
4 50 -4.45879e-005 0.00428562
4 51 3.10935e-005 0.00411133
4 52 4.40843e-005 0.00402725
4 53 3.52542e-005 0.00423108
4 54 -3.40473e-006 0.00417071
4 55 0.000111736 0.00390072
4 56 6.63477e-005 0.00399279
4 57 3.50278e-005 0.00417001
4 58 4.70559e-005 0.00386601
4 59 0.000170629 0.00369201
4 60 3.10396e-005 0.00398107
4 61 3.62156e-005 0.00393574
4 62 0.000113237 0.00347928
4 63 0.000173302 0.00361412
4 64 -4.89747e-005 0.00393073
4 65 8.37883e-005 0.00352044
4 66 0.000169291 0.00318968
4 67 8.42462e-005 0.00370178
4 68 -0.000119795 0.00371675
4 69 0.000208139 0.00302668
4 70 0.000147439 0.00318059
4 71 -9.21192e-005 0.00383774
4 72 -8.94031e-005 0.00324768
4 73 0.000379371 0.00268811
4 74 -3.75399e-005 0.00351937
4 75 -0.00025654 0.00376936
4 76 0.000129587 0.0025878
4 77 0.000456461 0.00280037
4 78 -0.000414141 0.00403275
4 79 -0.00018547 0.00323595
4 80 0.000516197 0.00205295
4 81 0.000161081 0.00356809
4 82 -0.000847708 0.00427833
4 83 0.000406186 0.00222206
4 84 0.000757389 0.0022735
4 85 -0.000879386 0.00492719
4 86 -0.00094247 0.00374258
4 87 0.00157947 0.00135277
4 88 -4.2652e-005 0.00429123
4 89 -0.00295182 0.00645802
4 90 -9.15798e-005 0.00230568
4 91 0.00196602 0.00241666
4 92 -0.00361648 0.00978553
4 93 -0.00495695 0.00834726
4 94 -0.000809322 0.00256812
4 95 -0.0101218 0.0125794
4 96 -0.0157159 0.0120487
4 97 -0.00857445 -0.0098604
4 98 0.0108152 -0.0178913
4 99 0.0928935 -0.00111476
4 100 0.1 0
5 0 0 0
5 1 7.57501e-007 5.68526e-007
5 2 5.58786e-005 1.17168e-006
5 3 9.36646e-005 -4.66298e-005
5 4 0.000106108 -9.94839e-005
5 5 0.000110278 -0.000140323
5 6 8.41697e-005 -0.000165929
5 7 6.07322e-005 -0.000193457
5 8 3.4039e-005 -0.000210724
5 9 9.02019e-006 -0.000209865
5 10 -3.4198e-005 -0.000191601
5 11 -5.69683e-005 -0.000170781
5 12 -8.67806e-005 -0.000131814
5 13 -0.000121167 -7.22198e-005
5 14 -0.000161465 -3.84248e-006
5 15 -0.00017813 6.88069e-005
5 16 -0.000215379 0.00016719
5 17 -0.000253758 0.000281198
5 18 -0.000283762 0.000394673
5 19 -0.000299365 0.000521709
5 20 -0.000345563 0.000677201
5 21 -0.000375561 0.000834249
5 22 -0.00039157 0.00098841
5 23 -0.000411183 0.00116936
5 24 -0.000457057 0.00136779
5 25 -0.000463555 0.00155095
5 26 -0.000468562 0.0017408
5 27 -0.000492259 0.00196339
5 28 -0.000519601 0.00217674
5 29 -0.000494797 0.00236793
5 30 -0.000498872 0.00258384
5 31 -0.00051757 0.00281877
5 32 -0.00050836 0.00301237
5 33 -0.00046079 0.00319846
5 34 -0.000474993 0.00342142
5 35 -0.000470405 0.00362606
5 36 -0.000420705 0.00377371
5 37 -0.000375157 0.00394922
5 38 -0.000400502 0.00414765
5 39 -0.000352867 0.00428124
5 40 -0.000283082 0.00437992
5 41 -0.000267142 0.00454121
5 42 -0.000286276 0.0046744
5 43 -0.000188627 0.00472004
5 44 -0.000141798 0.0047913
5 45 -0.000163445 0.00492417
5 46 -0.00014394 0.00495655
5 47 -1.86145e-005 0.00493638
5 48 -4.14172e-005 0.00500886
5 49 -6.92879e-005 0.00508066
5 50 1.27723e-005 0.00500344
5 51 0.000107995 0.00497489
5 52 1.48467e-006 0.00505565
5 53 3.31511e-005 0.00502271
5 54 0.000156171 0.00487363
5 55 0.000152408 0.0049025
5 56 1.2843e-005 0.00495293
5 57 0.000161151 0.00478971
5 58 0.000239065 0.00465725
5 59 0.000111988 0.00477123
5 60 4.83677e-005 0.00470957
5 61 0.000298851 0.00445187
5 62 0.000212423 0.00444734
5 63 3.74888e-005 0.00458873
5 64 0.000154094 0.00433522
5 65 0.00038269 0.00411114
5 66 6.59373e-005 0.0043011
5 67 2.28213e-005 0.00431315
5 68 0.000318371 0.00387161
5 69 0.000326454 0.0038838
5 70 -0.000130072 0.00419723
5 71 0.000159743 0.0038816
5 72 0.000444788 0.00342339
5 73 8.85561e-005 0.00384864
5 74 -0.000216625 0.00400656
5 75 0.000468487 0.00327101
5 76 0.000373839 0.00316416
5 77 -0.000249886 0.00395628
5 78 -2.3027e-006 0.00350564
5 79 0.000821424 0.00258196
5 80 -3.80535e-005 0.00328583
5 81 -0.000467994 0.00393273
5 82 0.000602997 0.00247447
5 83 0.000862396 0.00213771
5 84 -0.000827002 0.00387012
5 85 -0.000324755 0.00328607
5 86 0.00133941 0.00098721
5 87 -9.60857e-005 0.00264901
5 88 -0.00200485 0.00475652
5 89 0.000130273 0.00173217
5 90 0.00101126 0.000402364
5 91 -0.00315431 0.00543205
5 92 -0.00468545 0.0052171
5 93 -0.000356401 0.00135105
5 94 -0.00495421 0.0071362
5 95 -0.0147099 0.00643581
5 96 0.000356653 -0.00364623
5 97 -0.00830413 0.000618949
5 98 0.00356294 0.00800545
5 99 0.0874001 0.00124066
5 100 0.1 0
6 0 0 0
6 1 -2.82611e-006 -2.33595e-006
6 2 7.57835e-005 -2.13849e-005
6 3 0.000128954 -5.23343e-005
6 4 0.000143283 -9.13286e-005
6 5 0.000128725 -0.00012184
6 6 0.000110076 -0.000146336
6 7 7.15168e-005 -0.000178951
6 8 2.9835e-005 -0.00018354
6 9 -1.31547e-005 -0.00016315
6 10 -5.38055e-005 -0.000146588
6 11 -0.0001024 -0.000125068
6 12 -0.000147068 -6.06618e-005
6 13 -0.000190168 1.17285e-005
6 14 -0.000233309 7.23625e-005
6 15 -0.000282937 0.000162589
6 16 -0.000325502 0.000291677
6 17 -0.000367292 0.000402876
6 18 -0.000411289 0.000515585
6 19 -0.000459533 0.000679621
6 20 -0.000495464 0.000854212
6 21 -0.00053349 0.000997029
6 22 -0.000573967 0.00117368
6 23 -0.000612987 0.00139878
6 24 -0.000634433 0.00159211
6 25 -0.000664277 0.00176891
6 26 -0.000692656 0.00201012
6 27 -0.000711273 0.00226021
6 28 -0.000711633 0.00244867
6 29 -0.00072938 0.00266608
6 30 -0.000735131 0.00294624
6 31 -0.000724884 0.00317087
6 32 -0.000704131 0.0033463
6 33 -0.000708102 0.0036021
6 34 -0.000682607 0.00386596
6 35 -0.000644531 0.00402413
6 36 -0.000611526 0.00419803
6 37 -0.000601474 0.00446553
6 38 -0.000541908 0.0046449
6 39 -0.000490606 0.00473228
6 40 -0.000458782 0.00492343
6 41 -0.000432152 0.00514413
6 42 -0.000345797 0.00519316
6 43 -0.000306783 0.00525315
6 44 -0.000282315 0.00545867
6 45 -0.000234124 0.0055557
6 46 -0.000141836 0.00549021
6 47 -0.000138728 0.00559041
6 48 -0.000111272 0.00575613
6 49 -4.19731e-005 0.00567763
6 50 2.52922e-005 0.00559
6 51 -1.3361e-005 0.00576253
6 52 4.11156e-005 0.00578698
6 53 0.000115309 0.00556549
6 54 0.000127402 0.00558392
6 55 6.91069e-005 0.00576475
6 56 0.000173418 0.00556184
6 57 0.000213726 0.00534321
6 58 0.000159159 0.0055356
6 59 0.000130332 0.00556282
6 60 0.000282382 0.00516153
6 61 0.000232665 0.0051527
6 62 0.000141316 0.00542665
6 63 0.000198966 0.00513713
6 64 0.00034825 0.00474582
6 65 0.000161955 0.00507178
6 66 0.000121229 0.00515824
6 67 0.000289598 0.00455572
6 68 0.000329991 0.0045057
6 69 2.1843e-005 0.00503932
6 70 0.000166669 0.00463048
6 71 0.000379168 0.00401914
6 72 0.000181762 0.00455175
6 73 -0.000108542 0.00484802
6 74 0.000342664 0.00387321
6 75 0.000384473 0.00381634
6 76 -9.92057e-005 0.00478042
6 77 -7.63325e-005 0.00425558
6 78 0.000648902 0.00315715
6 79 0.000151992 0.00416406
6 80 -0.000401797 0.00481503
6 81 0.000292825 0.003215
6 82 0.00088279 0.00300664
6 83 -0.000527517 0.00497409
6 84 -0.000460553 0.00416009
6 85 0.000963268 0.00218555
6 86 0.000336378 0.0040943
6 87 -0.00189344 0.0057837
6 88 2.07636e-005 0.00278926
6 89 0.000892353 0.0025789
6 90 -0.00285068 0.00708626
6 91 -0.00386019 0.00651038
6 92 0.000105922 0.0027771
6 93 -0.00513264 0.00719411
6 94 -0.00964103 0.0107476
6 95 -0.00499401 0.00643635
6 96 0.000674988 0.00937054
6 97 -0.0143137 0.0130173
6 98 0.0107174 0.00212765
6 99 0.0940084 -0.000538651
6 100 0.1 0
7 0 0 0
7 1 3.50454e-006 3.38736e-007
7 2 9.39407e-005 -5.42468e-006
7 3 0.000164288 -4.60727e-005
7 4 0.000183126 -8.07791e-005
7 5 0.000158622 -0.000120988
7 6 0.000131451 -0.000150949
7 7 8.41778e-005 -0.000162467
7 8 2.74601e-005 -0.000160647
7 9 -3.28857e-005 -0.000159587
7 10 -8.15712e-005 -0.000133834
7 11 -0.000146348 -8.50807e-005
7 12 -0.000209528 -3.16318e-005
7 13 -0.000263919 2.7769e-005
7 14 -0.000316736 0.00012081
7 15 -0.000387561 0.000226778
7 16 -0.000443141 0.000329312
7 17 -0.000492691 0.00045267
7 18 -0.000552621 0.000609933
7 19 -0.000620513 0.000762403
7 20 -0.000660889 0.00091524
7 21 -0.000709754 0.00110547
7 22 -0.000769637 0.00131327
7 23 -0.000817992 0.00150087
7 24 -0.00083845 0.00170677
7 25 -0.000885803 0.00195366
7 26 -0.000926513 0.00218649
7 27 -0.000939709 0.00239933
7 28 -0.000941484 0.00265316
7 29 -0.000978915 0.00292614
7 30 -0.000977104 0.00315273
7 31 -0.00095253 0.00338279
7 32 -0.0009424 0.00366239
7 33 -0.00095425 0.00391443
7 34 -0.000896706 0.00411039
7 35 -0.00085183 0.0043495
7 36 -0.00083503 0.00461277
7 37 -0.000804522 0.0047975
7 38 -0.000701988 0.00495808
7 39 -0.00066734 0.00519152
7 40 -0.000638287 0.00538417
7 41 -0.000559109 0.00548098
7 42 -0.000448174 0.00562203
7 43 -0.000447802 0.0058188
7 44 -0.000386685 0.00589585
7 45 -0.000275058 0.00592721
7 46 -0.000204924 0.00606571
7 47 -0.000233511 0.00617729
7 48 -0.000116388 0.00613192
7 49 -2.01524e-005 0.00615478
7 50 -2.31093e-005 0.00627996
7 51 -3.57952e-005 0.00625887
7 52 0.000135856 0.00614044
7 53 0.000146687 0.00620985
7 54 9.2399e-005 0.00626812
7 55 0.000155109 0.00610361
7 56 0.000324266 0.00600767
7 57 0.000200278 0.00612879
7 58 0.00018389 0.00604194
7 59 0.000337106 0.0057945
7 60 0.000398097 0.00581708
7 61 0.000170991 0.00591434
7 62 0.000308333 0.00563444
7 63 0.000465987 0.00543966
7 64 0.00033171 0.00560768
7 65 0.000145269 0.00554167
7 66 0.000483928 0.00511834
7 67 0.000459976 0.00513831
7 68 0.000170669 0.00534926
7 69 0.000228583 0.00499364
7 70 0.000645422 0.00461023
7 71 0.000258069 0.00493462
7 72 5.82468e-005 0.00494907
7 73 0.000470692 0.00430636
7 74 0.000647974 0.00424627
7 75 -8.50272e-005 0.00477103
7 76 0.000196114 0.00429554
7 77 0.000775384 0.00360352
7 78 0.000348512 0.00412327
7 79 -0.000342938 0.00446408
7 80 0.000705656 0.00333841
7 81 0.000832197 0.00311095
7 82 -0.000272167 0.00421077
7 83 -0.000225881 0.00375017
7 84 0.00135673 0.0022323
7 85 8.48726e-005 0.00318787
7 86 -0.00115943 0.00430189
7 87 0.00015621 0.00249571
7 88 0.00104626 0.00174906
7 89 -0.00232692 0.00447426
7 90 -0.00283601 0.00401235
7 91 -0.000967974 0.001341
7 92 -0.00291323 0.00434857
7 93 -0.00874496 0.00685186
7 94 -0.00472132 0.00248025
7 95 -0.00766629 0.00321275
7 96 -0.011899 0.0102788
7 97 -0.00924507 0.0139171
7 98 0.0211591 0.0084952
7 99 0.0964434 -0.000173345
7 100 0.1 0
8 0 0 0
8 1 1.61232e-006 -1.6912e-006
8 2 0.00011368 -2.85256e-005
8 3 0.000188551 -4.82501e-005
8 4 0.000208535 -6.96631e-005
8 5 0.000190021 -0.000111311
8 6 0.000142157 -0.000137436
8 7 8.17846e-005 -0.0001418
8 8 2.04842e-005 -0.000140865
8 9 -5.26783e-005 -0.000138629
8 10 -0.000129638 -0.000101117
8 11 -0.000199468 -4.86128e-005
8 12 -0.000268715 -6.43117e-007
8 13 -0.000347696 6.64633e-005
8 14 -0.000422357 0.000171989
8 15 -0.000487949 0.000272969
8 16 -0.000560378 0.000373592
8 17 -0.00064023 0.000513803
8 18 -0.000706289 0.000676189
8 19 -0.000768023 0.000818566
8 20 -0.000841457 0.000982771
8 21 -0.000912082 0.00119289
8 22 -0.000960698 0.00139351
8 23 -0.00101534 0.00157826
8 24 -0.00107799 0.00181188
8 25 -0.00112207 0.00206951
8 26 -0.00114403 0.00228766
8 27 -0.00118435 0.00251886
8 28 -0.00121722 0.00280716
8 29 -0.00121892 0.00307146
8 30 -0.00121083 0.00329191
8 31 -0.00122813 0.0035661
8 32 -0.00121317 0.00386583
8 33 -0.00116915 0.0040923
8 34 -0.0011372 0.00431128
8 35 -0.00112432 0.00460545
8 36 -0.00105431 0.00485416
8 37 -0.000980269 0.00501863
8 38 -0.000937932 0.00524084
8 39 -0.000890078 0.00550694
8 40 -0.000775183 0.00565032
8 41 -0.000703456 0.00576632
8 42 -0.000660292 0.00598958
8 43 -0.000574611 0.0061624
8 44 -0.000445545 0.00618804
8 45 -0.000409446 0.00630108
8 46 -0.00035741 0.00649325
8 47 -0.000240834 0.00651703
8 48 -0.000142554 0.00647653
8 49 -0.000152111 0.00662598
8 50 -6.79256e-005 0.00671483
8 51 5.13307e-005 0.00658823
8 52 7.9999e-005 0.00658177
8 53 5.15272e-005 0.00674604
8 54 0.00018517 0.00665115
8 55 0.000256307 0.00646405
8 56 0.000208464 0.006574
8 57 0.000215447 0.00664506
8 58 0.00038302 0.00635328
8 59 0.00034938 0.0062698
8 60 0.00026886 0.0064698
8 61 0.00036139 0.00630361
8 62 0.0004998 0.00594161
8 63 0.000333712 0.00610211
8 64 0.000312575 0.00621005
8 65 0.000492561 0.00575564
8 66 0.000504992 0.00558265
8 67 0.000248364 0.00595486
8 68 0.000393592 0.00570617
8 69 0.00057864 0.00514412
8 70 0.00038336 0.00540704
8 71 0.000172538 0.00568882
8 72 0.000543932 0.00495109
8 73 0.000558584 0.00471423
8 74 0.000167293 0.00538997
8 75 0.000219459 0.00510294
8 76 0.000744356 0.0041387
8 77 0.000357478 0.00469549
8 78 -3.26147e-005 0.00527538
8 79 0.000496872 0.00412429
8 80 0.000866817 0.00369338
8 81 -0.000101854 0.00508933
8 82 -3.62163e-005 0.00467373
8 83 0.000958701 0.00306468
8 84 0.000509654 0.00412508
8 85 -0.000961112 0.00552916
8 86 0.000241821 0.00349187
8 87 0.000875037 0.00288463
8 88 -0.00149467 0.00572235
8 89 -0.00247125 0.00560324
8 90 9.69592e-005 0.00289532
8 91 -0.00293042 0.00519872
8 92 -0.00657743 0.00771791
8 93 -0.00463145 0.00494903
8 94 -0.00344208 0.00487503
8 95 -0.0126764 0.00884286
8 96 -0.0112308 0.00567296
8 97 -0.00199135 1.86114e-005
8 98 0.0234282 -0.00530557
8 99 0.096634 -0.00103015
8 100 0.1 0
9 0 0 0
9 1 3.7849e-006 -8.39533e-008
9 2 0.000135102 1.88636e-006
9 3 0.000220884 -3.81003e-005
9 4 0.000238266 -8.2158e-005
9 5 0.000218589 -0.000109574
9 6 0.000160546 -0.00012446
9 7 8.74068e-005 -0.000148609
9 8 1.06946e-005 -0.000149509
9 9 -7.24593e-005 -0.000124593
9 10 -0.000166604 -9.61545e-005
9 11 -0.000250776 -6.63788e-005
9 12 -0.000334678 1.66253e-006
9 13 -0.000426265 8.55222e-005
9 14 -0.000518039 0.000161561
9 15 -0.000596475 0.000257549
9 16 -0.00068457 0.000395438
9 17 -0.000777343 0.000527991
9 18 -0.000858816 0.000656394
9 19 -0.000934043 0.000828085
9 20 -0.00102349 0.0010256
9 21 -0.0011039 0.00119868
9 22 -0.00116691 0.00139055
9 23 -0.0012356 0.0016355
9 24 -0.00130959 0.00187078
9 25 -0.00135768 0.00208106
9 26 -0.00139424 0.00234101
9 27 -0.00144454 0.00263332
9 28 -0.00147753 0.00287732
9 29 -0.00147834 0.00312335
9 30 -0.00148508 0.0034342
9 31 -0.00149942 0.00372502
9 32 -0.00147074 0.00395235
9 33 -0.00142706 0.00422814
9 34 -0.00140588 0.00454448
9 35 -0.00136774 0.00477896
9 36 -0.00127862 0.00498056
9 37 -0.00121329 0.00526834
9 38 -0.00116557 0.00552507
9 39 -0.00107062 0.0056708
9 40 -0.000950819 0.00585866
9 41 -0.000891993 0.00612061
9 42 -0.000813819 0.00625756
9 43 -0.000678159 0.00632922
9 44 -0.000574376 0.00651971
9 45 -0.000534621 0.00669601
9 46 -0.000417665 0.00669346
9 47 -0.000280352 0.00674964
9 48 -0.000233006 0.00693018
9 49 -0.000193362 0.00695903
9 50 -3.89238e-005 0.00686374
9 51 4.23773e-005 0.00696634
9 52 3.03519e-005 0.00707466
9 53 0.000113258 0.0069356
9 54 0.00026872 0.00685177
9 55 0.000243907 0.00700755
9 56 0.000227855 0.00695262
9 57 0.000380563 0.00670892
9 58 0.00045721 0.0067429
9 59 0.00033192 0.00686667
9 60 0.000406059 0.00659511
9 61 0.000583951 0.00639584
9 62 0.000498005 0.00657192
9 63 0.000371652 0.00651218
9 64 0.000598099 0.00608569
9 65 0.000664748 0.00609915
9 66 0.000415808 0.00629689
9 67 0.000460097 0.00593496
9 68 0.000772632 0.0055563
9 69 0.000563319 0.00584918
9 70 0.000319373 0.00582395
9 71 0.000663984 0.00520251
9 72 0.000817079 0.00514137
9 73 0.000301234 0.00556815
9 74 0.000385209 0.00508268
9 75 0.000934303 0.00447735
9 76 0.000597852 0.00490171
9 77 5.79595e-005 0.00509262
9 78 0.000748515 0.00411674
9 79 0.0010393 0.00397611
9 80 9.46748e-005 0.00475733
9 81 0.000117133 0.00426823
9 82 0.00126759 0.00314627
9 83 0.000560725 0.00389627
9 84 -0.000556242 0.00450176
9 85 0.000478635 0.00310874
9 86 0.00108897 0.00265145
9 87 -0.00113408 0.00443805
9 88 -0.00152856 0.003948
9 89 -0.000149528 0.00210301
9 90 -0.00182894 0.00375547
9 91 -0.00523246 0.00559309
9 92 -0.00370673 0.00283408
9 93 -0.00487721 0.00303633
9 94 -0.00931469 0.00701144
9 95 -0.00888434 0.00539679
9 96 -0.00600168 7.04743e-005
9 97 -0.00333158 0.00317408
9 98 0.022981 0.00529652
9 99 0.0967155 -8.84681e-005
9 100 0.1 0
10 0 0 0
10 1 2.22719e-006 -1.50247e-006
10 2 0.000148717 -1.53321e-005
10 3 0.000253076 -4.45001e-005
10 4 0.00026758 -7.50598e-005
10 5 0.00023423 -0.000102034
10 6 0.000174963 -0.000123103
10 7 9.53325e-005 -0.000144313
10 8 -6.80227e-006 -0.000139278
10 9 -0.000102656 -0.000119276
10 10 -0.000198701 -9.44825e-005
10 11 -0.000303496 -5.72517e-005
10 12 -0.000413161 1.15081e-005
10 13 -0.000505575 8.52367e-005
10 14 -0.000605792 0.000163761
10 15 -0.000715827 0.000269346
10 16 -0.000817895 0.000399376
10 17 -0.000905569 0.000523871
10 18 -0.00101177 0.000665624
10 19 -0.00111846 0.000842698
10 20 -0.00120413 0.00102593
10 21 -0.00128714 0.00120419
10 22 -0.00138982 0.0014177
10 23 -0.00147256 0.00165724
10 24 -0.00152967 0.00188228
10 25 -0.00159982 0.00211792
10 26 -0.00167468 0.0023966
10 27 -0.00170829 0.00267228
10 28 -0.00172722 0.00292448
10 29 -0.00176958 0.00321117
10 30 -0.00178711 0.003523
10 31 -0.00175708 0.0037957
10 32 -0.00173771 0.00405949
10 33 -0.00173635 0.00437198
10 34 -0.00167838 0.00466305
10 35 -0.0015939 0.00489764
10 36 -0.00154701 0.00515901
10 37 -0.00149214 0.00545226
10 38 -0.00136468 0.00566828
10 39 -0.00125948 0.00585278
10 40 -0.00119956 0.00609711
10 41 -0.00108902 0.00631685
10 42 -0.000925687 0.00643136
10 43 -0.000844033 0.00658225
10 44 -0.000772079 0.00678568
10 45 -0.000614444 0.00688656
10 46 -0.000471142 0.00691986
10 47 -0.000437941 0.00706423
10 48 -0.000334284 0.00718363
10 49 -0.000161365 0.00715461
10 50 -9.32356e-005 0.00716992
10 51 -8.90194e-005 0.00730768
10 52 6.58837e-005 0.00728984
10 53 0.000194566 0.00718011
10 54 0.000168241 0.00724485
10 55 0.000202125 0.00731906
10 56 0.000393081 0.00714316
10 57 0.000410212 0.00706141
10 58 0.000332402 0.00718268
10 59 0.000454519 0.00709671
10 60 0.000611515 0.00682938
10 61 0.000485964 0.00688883
10 62 0.000457082 0.00696537
10 63 0.000669634 0.00666168
10 64 0.000687749 0.00647215
10 65 0.000471318 0.00668776
10 66 0.000600239 0.00653611
10 67 0.00081051 0.00610306
10 68 0.000615232 0.00618552
10 69 0.000455418 0.00638404
10 70 0.000779399 0.00587275
10 71 0.000815116 0.00559382
10 72 0.000445614 0.0059906
10 73 0.000537184 0.00583799
10 74 0.000948998 0.00508878
10 75 0.000639257 0.00532839
10 76 0.000299978 0.00574732
10 77 0.000777419 0.00497688
10 78 0.000998475 0.00448614
10 79 0.000289886 0.00537045
10 80 0.000331423 0.00519671
10 81 0.00111409 0.00399535
10 82 0.000713293 0.00445904
10 83 -0.000239803 0.00550008
10 84 0.00057092 0.00421925
10 85 0.00109096 0.00353081
10 86 -0.000542554 0.00521297
10 87 -0.00121036 0.00530974
10 88 0.000420852 0.003398
10 89 -0.00110918 0.00459425
10 90 -0.00413136 0.00630464
10 91 -0.00307314 0.00475625
10 92 -0.00254515 0.00432609
10 93 -0.0080557 0.00684767
10 94 -0.00903016 0.0057507
10 95 -0.00459725 0.00510962
10 96 -0.00796584 0.00757189
10 97 -0.00310947 0.00655803
10 98 0.0280982 -0.000491909
10 99 0.0987303 -0.000957841
10 100 0.1 0
11 0 0 0
11 1 5.46328e-006 -6.65463e-008
11 2 0.000166818 -1.17868e-005