Title= "LBM Lid Driven Flow"
VARIABLES="X","Y","U","V"
ZONE T="BOX",I=101,J=101,F=POINT
0 0 0 0
0 1 0 0
0 2 0 0
0 3 0 0
0 4 0 0
0 5 0 0
0 6 0 0
0 7 0 0
0 8 0 0
0 9 0 0
0 10 0 0
0 11 0 0
0 12 0 0
0 13 0 0
0 14 0 0
0 15 0 0
0 16 0 0
0 17 0 0
0 18 0 0
0 19 0 0
0 20 0 0
0 21 0 0
0 22 0 0
0 23 0 0
0 24 0 0
0 25 0 0
0 26 0 0
0 27 0 0
0 28 0 0
0 29 0 0
0 30 0 0
0 31 0 0
0 32 0 0
0 33 0 0
0 34 0 0
0 35 0 0
0 36 0 0
0 37 0 0
0 38 0 0
0 39 0 0
0 40 0 0
0 41 0 0
0 42 0 0
0 43 0 0
0 44 0 0
0 45 0 0
0 46 0 0
0 47 0 0
0 48 0 0
0 49 0 0
0 50 0 0
0 51 0 0
0 52 0 0
0 53 0 0
0 54 0 0
0 55 0 0
0 56 0 0
0 57 0 0
0 58 0 0
0 59 0 0
0 60 0 0
0 61 0 0
0 62 0 0
0 63 0 0
0 64 0 0
0 65 0 0
0 66 0 0
0 67 0 0
0 68 0 0
0 69 0 0
0 70 0 0
0 71 0 0
0 72 0 0
0 73 0 0
0 74 0 0
0 75 0 0
0 76 0 0
0 77 0 0
0 78 0 0
0 79 0 0
0 80 0 0
0 81 0 0
0 82 0 0
0 83 0 0
0 84 0 0
0 85 0 0
0 86 0 0
0 87 0 0
0 88 0 0
0 89 0 0
0 90 0 0
0 91 0 0
0 92 0 0
0 93 0 0
0 94 0 0
0 95 0 0
0 96 0 0
0 97 0 0
0 98 0 0
0 99 0 0
0 100 0.1 0
1 0 0 0
1 1 -4.55365e-006 5.53198e-006
1 2 3.91506e-006 3.49739e-005
1 3 -2.1911e-006 1.13713e-005
1 4 1.80274e-006 7.1942e-006
1 5 -2.91641e-006 6.90949e-006
1 6 1.81735e-006 -5.58146e-008
1 7 -3.60533e-006 7.20312e-007
1 8 1.8396e-006 7.0222e-006
1 9 -2.23965e-006 -8.36126e-006
1 10 1.26546e-006 -1.26368e-005
1 11 -2.33347e-006 -3.66379e-006
1 12 3.46269e-006 -1.04095e-005
1 13 -8.29027e-007 -3.02019e-005
1 14 3.10256e-006 -2.14087e-005
1 15 1.60014e-006 -1.70335e-005
1 16 7.10167e-006 -3.95975e-005
1 17 2.68414e-006 -4.74812e-005
1 18 8.83025e-006 -2.84274e-005
1 19 8.38711e-006 -4.08502e-005
1 20 1.31134e-005 -6.43495e-005
1 21 9.54018e-006 -4.60798e-005
1 22 1.86353e-005 -3.10711e-005
1 23 1.68416e-005 -5.86688e-005
1 24 2.11863e-005 -5.60845e-005
1 25 1.93985e-005 -1.46931e-005
1 26 2.99558e-005 -2.15418e-005
1 27 2.41348e-005 -4.17488e-005
1 28 2.99164e-005 4.84029e-006
1 29 2.92952e-005 4.05706e-005
1 30 3.79636e-005 8.22048e-006
1 31 2.74335e-005 2.94493e-005
1 32 3.73141e-005 0.000102907
1 33 3.44934e-005 9.41151e-005
1 34 3.87598e-005 6.35261e-005
1 35 2.63496e-005 0.000142932
1 36 4.14615e-005 0.000187651
1 37 3.12297e-005 0.000125016
1 38 3.2943e-005 0.000146307
1 39 2.31197e-005 0.000253081
1 40 4.07574e-005 0.000210958
1 41 1.95041e-005 0.000144135
1 42 2.57759e-005 0.000248535
1 43 1.99647e-005 0.000302019
1 44 3.40904e-005 0.000169955
1 45 3.90872e-006 0.000190245
1 46 2.37089e-005 0.000336348
1 47 1.59137e-005 0.000252937
1 48 2.21008e-005 0.000122167
1 49 -7.6238e-006 0.000286775
1 50 2.91953e-005 0.000346531
1 51 6.69397e-006 0.000129399
1 52 9.85242e-006 0.000152387
1 53 -7.86876e-006 0.000390058
1 54 3.72579e-005 0.000228353
1 55 -1.02786e-005 3.2541e-005
1 56 7.44718e-006 0.000294398
1 57 3.34194e-006 0.000389436
1 58 3.8163e-005 1.83441e-005
1 59 -2.91702e-005 9.0629e-005
1 60 2.46358e-005 0.000458679
1 61 1.51557e-005 0.000195007
1 62 2.73451e-005 -0.000126626
1 63 -3.47927e-005 0.000337945
1 64 6.07134e-005 0.000453649
1 65 1.13543e-005 -0.000135131
1 66 1.58297e-005 -1.69919e-005
1 67 -1.26123e-005 0.000613876
1 68 9.90591e-005 0.000140744
1 69 -1.33666e-005 -0.000358744
1 70 2.88627e-005 0.000382118
1 71 3.55181e-005 0.000623386
1 72 0.000117962 -0.000385098
1 73 -4.0749e-005 -0.000197893
1 74 8.88847e-005 0.000834288
1 75 8.66219e-005 0.000165624
1 76 0.000113189 -0.000785112
1 77 -3.66512e-005 0.000427388
1 78 0.00019856 0.000934686
1 79 0.000113278 -0.000691443
1 80 0.000107092 -0.000655475
1 81 3.2407e-005 0.00128703
1 82 0.000341835 0.000293281
1 83 0.000104526 -0.00162568
1 84 0.000140311 0.000312434
1 85 0.000202913 0.0018045
1 86 0.000494149 -0.00143387
1 87 7.04425e-005 -0.0020105
1 88 0.000287664 0.00223065
1 89 0.000543293 0.000673175
1 90 0.000609252 -0.00450266
1 91 3.94037e-005 -0.00016489
1 92 0.000742754 0.00476872
1 93 0.00122271 -0.00562781
1 94 0.000760999 -0.0109613
1 95 6.24158e-005 0.00670828
1 96 0.00247921 0.00302352
1 97 0.0022814 -0.0232943
1 98 -0.00301265 0.0339574
1 99 0.00729817 0.012364
1 100 0.1 0
2 0 0 0
2 1 -4.91888e-005 -2.16626e-006
2 2 3.07556e-005 -1.6341e-005
2 3 -1.10817e-005 -9.40934e-006
2 4 3.7552e-005 -3.28344e-005
2 5 -1.85429e-005 -6.54021e-005
2 6 4.23364e-005 -8.56445e-005
2 7 -1.1981e-005 -0.00012445
2 8 3.96708e-005 -0.000173686
2 9 -4.74642e-006 -0.000209402
2 10 4.1402e-005 -0.000244513
2 11 -6.25611e-006 -0.00030453
2 12 4.24276e-005 -0.000352793
2 13 -2.99337e-006 -0.000382345
2 14 3.61105e-005 -0.000426407
2 15 -6.48304e-006 -0.000480029
2 16 3.55163e-005 -0.000495817
2 17 -1.6074e-005 -0.000503217
2 18 2.3562e-005 -0.000528212
2 19 -2.35146e-005 -0.000525358
2 20 1.13772e-005 -0.000473041
2 21 -4.59933e-005 -0.000433259
2 22 -1.09929e-006 -0.000387797
2 23 -6.27885e-005 -0.000276471
2 24 -2.61016e-005 -0.000137861
2 25 -8.59913e-005 -2.57572e-005
2 26 -3.43811e-005 0.000137116
2 27 -0.000114497 0.00036755
2 28 -5.8276e-005 0.000573852
2 29 -0.000121513 0.000769465
2 30 -6.40138e-005 0.00105283
2 31 -0.000156469 0.00134806
2 32 -6.24404e-005 0.00157673
2 33 -0.000142589 0.00184509
2 34 -7.66965e-005 0.00218992
2 35 -0.000166628 0.00245584
2 36 -3.18523e-005 0.00266919
2 37 -0.000154001 0.00297722
2 38 -6.08299e-005 0.00328082
2 39 -0.000139222 0.0034424
2 40 1.39488e-005 0.00363872
2 41 -0.000165079 0.00393013
2 42 -7.53193e-006 0.00409092
2 43 -9.4502e-005 0.00414713
2 44 4.53472e-005 0.00434995
2 45 -0.000171507 0.0045407
2 46 8.20478e-005 0.00451709
2 47 -7.27613e-005 0.00454999
2 48 5.21992e-005 0.00475215
2 49 -0.000152661 0.00475127
2 50 0.000183827 0.00461099
2 51 -0.000111579 0.00472104
2 52 6.45989e-005 0.00483372
2 53 -9.66669e-005 0.00461346
2 54 0.000247443 0.00452396
2 55 -0.000209374 0.00471684
2 56 0.000139847 0.00459878
2 57 -3.71919e-005 0.00427542
2 58 0.000227006 0.00439601
2 59 -0.000301837 0.0045104
2 60 0.000307767 0.0041011
2 61 -5.92893e-005 0.00392828
2 62 0.000142606 0.00424053
2 63 -0.000295251 0.00402204
2 64 0.000510714 0.00348987
2 65 -0.000237959 0.0036957
2 66 0.000112784 0.00391054
2 67 -0.000162918 0.00324593
2 68 0.000611326 0.00298358
2 69 -0.000538034 0.00352275
2 70 0.000281213 0.00322112
2 71 -1.94848e-005 0.00236746
2 72 0.000505078 0.00274585
2 73 -0.000797025 0.00318798
2 74 0.000680013 0.00217845
2 75 -6.39496e-005 0.00173531
2 76 0.0002325 0.00276105
2 77 -0.00084659 0.00249262
2 78 0.0012062 0.00110324
2 79 -0.000457091 0.00169057
2 80 -5.08742e-005 0.00284094
2 81 -0.000575718 0.00145759
2 82 0.0016907 0.000535568
2 83 -0.00133436 0.00244453
2 84 -9.17173e-005 0.00274065
2 85 0.000180421 0.000366951
2 86 0.00170467 0.00120894
2 87 -0.00285835 0.00418129
2 88 0.000774535 0.00233014
2 89 0.00163525 -1.12174e-005
2 90 -0.00029036 0.00457116
2 91 -0.00501725 0.00752214
2 92 0.00457845 0.00220158
2 93 0.00477159 0.00198941
2 94 -0.00810937 0.0139827
2 95 -0.00923451 0.0172377
2 96 0.0156028 0.0128793
2 97 -0.017921 0.0399939
2 98 -0.0253873 0.0349546
2 99 0.0906475 0.000718982
2 100 0.1 0
3 0 0 0
3 1 -1.82009e-005 1.78766e-006
3 2 1.87194e-005 3.70519e-006
3 3 2.71821e-005 -2.25785e-005
3 4 6.00328e-005 -5.75928e-005
3 5 4.04209e-005 -0.000103927
3 6 7.43321e-005 -0.000152858
3 7 6.88745e-005 -0.000219082
3 8 8.77208e-005 -0.000289662
3 9 7.22183e-005 -0.000361812
3 10 0.000101738 -0.000439392
3 11 8.59632e-005 -0.000526295
3 12 9.15114e-005 -0.000599656
3 13 7.71492e-005 -0.000672165
3 14 9.40158e-005 -0.000747224
3 15 5.7316e-005 -0.000807383
3 16 5.1464e-005 -0.00084038
3 17 2.93848e-005 -0.000870158
3 18 1.90717e-005 -0.000879127
3 19 -4.34251e-005 -0.000844123
3 20 -5.50992e-005 -0.00077972
3 21 -9.60355e-005 -0.000699878
3 22 -0.000137118 -0.00056547
3 23 -0.000210802 -0.000377888
3 24 -0.000216128 -0.000171456
3 25 -0.000279655 7.16756e-005
3 26 -0.000331532 0.000386558
3 27 -0.000386231 0.000728839
3 28 -0.000374859 0.00107669
3 29 -0.00045451 0.00148212
3 30 -0.000479329 0.00193741
3 31 -0.000491585 0.00237027
3 32 -0.000466292 0.00281111
3 33 -0.00054741 0.00331449
3 34 -0.000509841 0.00380405
3 35 -0.000485588 0.00423459
3 36 -0.000461129 0.00469975
3 37 -0.000523797 0.00519521
3 38 -0.000411 0.00560024
3 39 -0.000389636 0.00596332
3 40 -0.000377617 0.00638809
3 41 -0.000397595 0.00676565
3 42 -0.000229934 0.00701814
3 43 -0.000267892 0.00730282
3 44 -0.000251029 0.00762819
3 45 -0.00020975 0.00781434
3 46 -4.62405e-005 0.00793153
3 47 -0.000177751 0.00815686
3 48 -9.65721e-005 0.008322
3 49 -1.45487e-005 0.00831637
3 50 6.59701e-005 0.00838285
3 51 -0.000123412 0.00854115
3 52 8.95699e-005 0.00849882
3 53 0.000119996 0.00839283
3 54 8.17894e-005 0.00848731
3 55 -4.99323e-005 0.00850699
3 56 0.000289899 0.00827621
3 57 0.000129911 0.00822008
3 58 6.04336e-005 0.00831888
3 59 0.000104195 0.00810299
3 60 0.000432118 0.00781942
3 61 1.22925e-005 0.00791343
3 62 0.000129738 0.00784976
3 63 0.000319898 0.00739547
3 64 0.000421879 0.00727815
3 65 -0.000119604 0.00743201
3 66 0.000386383 0.00699653
3 67 0.000453563 0.00650802
3 68 0.000250241 0.00669444
3 69 -7.85657e-005 0.00658887
3 70 0.000760309 0.00576319
3 71 0.000325274 0.00561509
3 72 7.42239e-005 0.00594596
3 73 0.000221855 0.00522319
3 74 0.000999687 0.00438061
3 75 -8.80584e-005 0.00486425
3 76 0.000120943 0.00481975
3 77 0.00062792 0.0034474
3 78 0.000872751 0.00330484
3 79 -0.00058047 0.00426683
3 80 0.000485487 0.00318925
3 81 0.000859668 0.00176179
3 82 0.000339527 0.00302958
3 83 -0.000888785 0.00360061
3 84 0.00114335 0.00112715
3 85 0.000644855 0.0010142
3 86 -0.000646489 0.00384369
3 87 -0.000820726 0.00229791
3 88 0.00220881 -0.00101054
3 89 -0.000650088 0.00259474
3 90 -0.00268467 0.00556654
3 91 -0.000338877 -0.000824139
3 92 0.00453981 -0.00201623
3 93 -0.00328219 0.0097734
3 94 -0.010023 0.00796899
3 95 -0.00394205 -0.00564864
3 96 -0.00628679 0.01416
3 97 -0.035056 0.0265843
3 98 0.00967024 0.0120386
3 99 0.101362 -0.000100085
3 100 0.1 0
4 0 0 0
4 1 -2.23453e-006 7.04566e-007
4 2 3.07515e-005 -3.29144e-005
4 3 5.78313e-005 -5.93575e-005
4 4 8.70012e-005 -8.27167e-005
4 5 0.000114215 -0.000143502
4 6 0.000123548 -0.000226889
4 7 0.000147038 -0.000304004
4 8 0.000154693 -0.000376011
4 9 0.000167504 -0.000480174
4 10 0.000167321 -0.000579373
4 11 0.000174677 -0.000657319
4 12 0.000161096 -0.000742763
4 13 0.000155888 -0.000841805
4 14 0.000131916 -0.000897693
4 15 0.000108536 -0.000929749
4 16 6.54491e-005 -0.000970935
4 17 2.75956e-005 -0.000978933
4 18 -3.6347e-005 -0.000915697
4 19 -9.63696e-005 -0.000841118
4 20 -0.00017284 -0.000752032
4 21 -0.000247201 -0.000576693
4 22 -0.000344066 -0.000339884
4 23 -0.000422757 -0.000108895
4 24 -0.000516836 0.000181377
4 25 -0.000605003 0.000575997
4 26 -0.000700102 0.000977995
4 27 -0.000762202 0.00137482
4 28 -0.000845133 0.0018734
4 29 -0.000909402 0.00243116
4 30 -0.000961887 0.00292963
4 31 -0.000978435 0.00345841
4 32 -0.001029 0.00409353
4 33 -0.00103809 0.00468924
4 34 -0.00102665 0.00519878
4 35 -0.000996922 0.00579745
4 36 -0.00101064 0.0064405
4 37 -0.000951152 0.00694233
4 38 -0.000890985 0.00740912
4 39 -0.000840252 0.00800236
4 40 -0.000818983 0.00851078
4 41 -0.00070102 0.00884745
4 42 -0.000637491 0.00926832
4 43 -0.000589071 0.0097661
4 44 -0.000531828 0.0100357
4 45 -0.000390306 0.0102379
4 46 -0.00037181 0.0106262
4 47 -0.000319637 0.0109206
4 48 -0.000229434 0.0109447
4 49 -0.000118621 0.0111239
4 50 -0.000161299 0.0114392
4 51 -6.74272e-005 0.0114428
4 52 2.51654e-005 0.0113481
4 53 5.4746e-005 0.0115977
4 54 -5.90023e-006 0.0117089
4 55 0.00016331 0.0114449
4 56 0.000186087 0.0114433
4 57 0.000136099 0.0117077
4 58 0.000148142 0.0114666
4 59 0.00036152 0.0111382
4 60 0.000235152 0.0113632
4 61 0.000205889 0.0113953
4 62 0.000351665 0.0108111
4 63 0.000483652 0.0107327
4 64 0.000214355 0.0110416
4 65 0.000379231 0.0105595
4 66 0.000577615 0.00993322
4 67 0.000479682 0.0102752
4 68 0.000240783 0.0102171
4 69 0.000699236 0.00922255
4 70 0.000690881 0.009043
4 71 0.000367693 0.00954175
4 72 0.000436023 0.00865932
4 73 0.00102717 0.00766252
4 74 0.000531266 0.0082124
4 75 0.000276574 0.00816892
4 76 0.000785857 0.00651814
4 77 0.00106896 0.0063604
4 78 7.7532e-005 0.00729639
4 79 0.000380718 0.00605537
4 80 0.00109353 0.00449183
4 81 0.000550795 0.00575671
4 82 -0.000480641 0.00608769
4 83 0.000827451 0.00369285
4 84 0.00104393 0.00361194
4 85 -0.000719736 0.00601353
4 86 -0.000774262 0.00454203
4 87 0.00167662 0.00210829
4 88 3.35213e-005 0.00496992
4 89 -0.00290538 0.0069157
4 90 -0.000130669 0.00274803
4 91 0.0020755 0.00274591
4 92 -0.00328098 0.00988716
4 93 -0.00494851 0.00842813
4 94 -0.000629062 0.00251942
4 95 -0.00987267 0.0121884
4 96 -0.0160253 0.01186
4 97 -0.00928834 -0.0096728
4 98 0.0103088 -0.0177372
4 99 0.0930603 -0.00112147
4 100 0.1 0
5 0 0 0
5 1 -5.19452e-006 3.9865e-006
5 2 6.81928e-005 5.16269e-006
5 3 0.000103092 -4.9682e-005
5 4 0.000146227 -0.000115215
5 5 0.000191611 -0.000188083
5 6 0.000214757 -0.000265193
5 7 0.00023699 -0.000360494
5 8 0.000258023 -0.000461678
5 9 0.000278129 -0.000568652
5 10 0.000268506 -0.000666342
5 11 0.000269755 -0.000766749
5 12 0.000260457 -0.000858602
5 13 0.000234154 -0.000932689
5 14 0.000181712 -0.000981241
5 15 0.000144963 -0.00101592
5 16 7.73959e-005 -0.00101407
5 17 -1.41465e-005 -0.000966536
5 18 -0.000115375 -0.000881948
5 19 -0.00020502 -0.000760043
5 20 -0.000341538 -0.000571874
5 21 -0.000482866 -0.000327489
5 22 -0.000611517 -4.46516e-005
5 23 -0.00073985 0.000297522
5 24 -0.000910998 0.000714008
5 25 -0.00104597 0.00116928
5 26 -0.0011582 0.00165668
5 27 -0.00128524 0.00221253
5 28 -0.00142662 0.00281756
5 29 -0.00149121 0.00342485
5 30 -0.00155199 0.00405783
5 31 -0.00163565 0.00474906
5 32 -0.00168807 0.00543607
5 33 -0.00165328 0.00609173
5 34 -0.00165978 0.00677435
5 35 -0.00167249 0.00748131
5 36 -0.00161442 0.0081226
5 37 -0.00150527 0.00872983
5 38 -0.00148142 0.00936749
5 39 -0.00141441 0.00997129
5 40 -0.00127104 0.0104748
5 41 -0.00114965 0.0109817
5 42 -0.00111863 0.0115007
5 43 -0.000974741 0.0119211
5 44 -0.000809475 0.0122652
5 45 -0.000736214 0.0126619
5 46 -0.000690222 0.0130084
5 47 -0.000487768 0.0132273
5 48 -0.000383642 0.013454
5 49 -0.000370893 0.0137369
5 50 -0.000272278 0.0138781
5 51 -6.55719e-005 0.013948
5 52 -8.61345e-005 0.0141176
5 53 -7.18462e-005 0.0142553
5 54 0.000100534 0.0142013
5 55 0.000218233 0.0142261
5 56 8.70427e-005 0.014352
5 57 0.000211994 0.0142912
5 58 0.000399781 0.014123
5 59 0.000350268 0.0141948
5 60 0.000235147 0.0141975
5 61 0.000533139 0.0139216
5 62 0.000587073 0.0137831
5 63 0.000406459 0.0138849
5 64 0.00049295 0.0136187
5 65 0.000869164 0.0132248
5 66 0.000646197 0.0132367
5 67 0.000541968 0.0131756
5 68 0.000911536 0.0125562
5 69 0.00110014 0.0122705
5 70 0.000632542 0.0123757
5 71 0.000893656 0.0118563
5 72 0.00134473 0.0110295
5 73 0.00107651 0.0110799
5 74 0.000674412 0.0109464
5 75 0.00142001 0.00982615
5 76 0.00145888 0.00923641
5 77 0.00075613 0.00960545
5 78 0.00089605 0.00875401
5 79 0.00181019 0.00735788
5 80 0.000947655 0.00758012
5 81 0.000313945 0.00779922
5 82 0.00129703 0.00595383
5 83 0.00159735 0.00520985
5 84 -0.000196391 0.00653657
5 85 4.35743e-005 0.00566917
5 86 0.00166094 0.00314578
5 87 0.000298167 0.0044537
5 88 -0.00179451 0.00631011
5 89 0.000115246 0.00326315
5 90 0.00131798 0.00166688
5 91 -0.00273137 0.00627129
5 92 -0.00459823 0.00609413
5 93 -4.90962e-005 0.00207346
5 94 -0.0042462 0.00728169
5 95 -0.0146853 0.00656876
5 96 -0.000290773 -0.00321013
5 97 -0.00896 0.000691521
5 98 0.00332468 0.00780299
5 99 0.0873307 0.00124367
5 100 0.1 0
6 0 0 0
6 1 -7.45506e-006 5.78754e-007
6 2 9.76531e-005 -2.3588e-005
6 3 0.000159449 -6.29706e-005
6 4 0.000221106 -0.000132003
6 5 0.000259489 -0.000217188
6 6 0.00030813 -0.000297216
6 7 0.000336029 -0.000404579
6 8 0.000357484 -0.000514166
6 9 0.000366494 -0.000606344
6 10 0.000370307 -0.000695247
6 11 0.000353089 -0.000799289
6 12 0.000321928 -0.000865722
6 13 0.000274886 -0.000897123
6 14 0.000212737 -0.000924204
6 15 0.000123367 -0.000924125
6 16 1.51691e-005 -0.00084709
6 17 -0.000108636 -0.000736475
6 18 -0.000251276 -0.000605293
6 19 -0.000421436 -0.000393985
6 20 -0.00059876 -9.91031e-005
6 21 -0.000781554 0.000211578
6 22 -0.0009773 0.000574535
6 23 -0.00118617 0.00104641
6 24 -0.00137556 0.00156129
6 25 -0.00155881 0.00207625
6 26 -0.00174257 0.00267914
6 27 -0.00191593 0.00336751
6 28 -0.00204382 0.0040292
6 29 -0.0021623 0.0046999
6 30 -0.00226871 0.0054734
6 31 -0.00234502 0.00625277
6 32 -0.00236262 0.00695046
6 33 -0.00238241 0.00769509
6 34 -0.00238307 0.00850944
6 35 -0.00234214 0.00922653
6 36 -0.002251 0.00986685
6 37 -0.00218923 0.0105983
6 38 -0.00209528 0.011308
6 39 -0.00196067 0.0118527
6 40 -0.00181086 0.012401
6 41 -0.00171107 0.0130415
6 42 -0.00155077 0.0135321
6 43 -0.00137752 0.0138884
6 44 -0.00123335 0.0143603
6 45 -0.00112475 0.0148305
6 46 -0.000928546 0.0150587
6 47 -0.00078335 0.0153047
6 48 -0.000681558 0.0157058
6 49 -0.00056216 0.015926
6 50 -0.000368213 0.0159529
6 51 -0.000304846 0.0161982
6 52 -0.000228057 0.0164636
6 53 -8.50424e-005 0.0164043
6 54 5.25489e-005 0.0163907
6 55 2.72532e-005 0.016669
6 56 0.00014328 0.0166732
6 57 0.000291683 0.0164324
6 58 0.000322 0.0165488
6 59 0.000276877 0.0167341
6 60 0.000491899 0.016403
6 61 0.000570494 0.0162168
6 62 0.000501451 0.0164804
6 63 0.000564577 0.0163285
6 64 0.000855463 0.0157859
6 65 0.000765068 0.01589
6 66 0.000717097 0.0160433
6 67 0.000982912 0.0153982
6 68 0.00119652 0.0149931
6 69 0.000916024 0.0153643
6 70 0.00109428 0.0149638
6 71 0.00148616 0.0140134
6 72 0.00140015 0.0141053
6 73 0.00108427 0.0142828
6 74 0.00163138 0.0130639
6 75 0.00182867 0.0124076
6 76 0.00133286 0.0129664
6 77 0.00129634 0.0122322
6 78 0.00210718 0.0105741
6 79 0.00163829 0.0109061
6 80 0.000947581 0.0112285
6 81 0.00152298 0.00925396
6 82 0.0021271 0.00833672
6 83 0.000617875 0.00975916
6 84 0.000434142 0.00871812
6 85 0.00170225 0.00629684
6 86 0.00113844 0.00755409
6 87 -0.00128992 0.00895402
6 88 0.000314293 0.00585605
6 89 0.0013099 0.00510005
6 90 -0.00210416 0.0090767
6 91 -0.00351056 0.00847756
6 92 0.000519724 0.00440547
6 93 -0.00414621 0.00805432
6 94 -0.00901567 0.0115345
6 95 -0.00499277 0.00718694
6 96 0.000618603 0.0093671
6 97 -0.0147323 0.0125354
6 98 0.010302 0.00203295
6 99 0.0938036 -0.000503398
6 100 0.1 0
7 0 0 0
7 1 3.79396e-006 3.43034e-006
7 2 0.000132243 -4.62273e-006
7 3 0.000225593 -7.02812e-005
7 4 0.000307102 -0.000141252
7 5 0.000351874 -0.00023084
7 6 0.000408438 -0.000327532
7 7 0.000445168 -0.000429108
7 8 0.000464526 -0.000522483
7 9 0.00046382 -0.000624459
7 10 0.000464302 -0.000712414
7 11 0.000429709 -0.000776451
7 12 0.000369407 -0.000815908
7 13 0.000296227 -0.000840835
7 14 0.000204307 -0.000817086
7 15 6.37862e-005 -0.000742748
7 16 -9.30249e-005 -0.000631156
7 17 -0.000261231 -0.000473436
7 18 -0.000464194 -0.000235335
7 19 -0.000704288 6.00711e-005
7 20 -0.000933532 0.000398848
7 21 -0.0011749 0.000812673
7 22 -0.00144548 0.00131167
7 23 -0.00171493 0.00184951
7 24 -0.00194434 0.00243366
7 25 -0.0021897 0.00310323
7 26 -0.00243594 0.00382638
7 27 -0.0026342 0.0045566
7 28 -0.0027817 0.00533172
7 29 -0.00295357 0.00617174
7 30 -0.00308137 0.00700699
7 31 -0.00313328 0.00781998
7 32 -0.00315686 0.00866964
7 33 -0.00320751 0.0095355
7 34 -0.00316844 0.0103361
7 35 -0.00307257 0.0111082
7 36 -0.00299004 0.0119034
7 37 -0.00291787 0.0126512
7 38 -0.00273226 0.0133044
7 39 -0.00255615 0.0139555
7 40 -0.00241886 0.0146008
7 41 -0.00225314 0.0151425
7 42 -0.0019914 0.015615
7 43 -0.00182538 0.0161206
7 44 -0.00166951 0.0165631
7 45 -0.00144737 0.0168856
7 46 -0.00119983 0.0172131
7 47 -0.00110195 0.0175704
7 48 -0.000922396 0.0177921
7 49 -0.000692395 0.0179503
7 50 -0.000537505 0.018188
7 51 -0.000496348 0.0183799
7 52 -0.000268652 0.0184046
7 53 -0.000103948 0.0184933
7 54 -6.5099e-005 0.0186585
7 55 -3.24586e-006 0.0186563
7 56 0.000262 0.0185645
7 57 0.00028361 0.0186651
7 58 0.000278623 0.0187054
7 59 0.000444479 0.0185128
7 60 0.000664354 0.0184299
7 61 0.000529467 0.0185396
7 62 0.000636934 0.0183583
7 63 0.000898368 0.0180634
7 64 0.000955247 0.0180909
7 65 0.000784417 0.0180787
7 66 0.00114105 0.017623
7 67 0.00133783 0.0173983
7 68 0.00119862 0.0175003
7 69 0.00122279 0.0171501
7 70 0.00178641 0.0165176
7 71 0.00167063 0.0165172
7 72 0.00150007 0.0164378
7 73 0.00189541 0.0156096
7 74 0.00234887 0.015075
7 75 0.00178045 0.0152502
7 76 0.00192921 0.0145904
7 77 0.00256857 0.013432
7 78 0.00242067 0.0133206
7 79 0.00160262 0.0133018
7 80 0.00241147 0.0118211
7 81 0.00268372 0.0108841
7 82 0.00165009 0.0113288
7 83 0.00123173 0.0105544
7 84 0.00264725 0.00854301
7 85 0.00158157 0.00868358
7 86 8.00912e-005 0.00932562
7 87 0.000832872 0.00732879
7 88 0.00195331 0.00592118
7 89 -0.00118527 0.00787889
7 90 -0.00213939 0.00728293
7 91 -0.000297986 0.004279
7 92 -0.00145462 0.0063343
7 93 -0.00764404 0.00839803
7 94 -0.00406669 0.00386744
7 95 -0.00676727 0.0037107
7 96 -0.0113807 0.0100914
7 97 -0.00979142 0.0137483
7 98 0.0203573 0.00848248
7 99 0.0963472 -0.000166132
7 100 0.1 0
8 0 0 0
8 1 1.8132e-006 1.8681e-006
8 2 0.000174241 -2.83198e-005
8 3 0.000285748 -8.34976e-005
8 4 0.000378554 -0.000140349
8 5 0.000450473 -0.00023152
8 6 0.000501225 -0.000332476
8 7 0.000532097 -0.000423855
8 8 0.000554666 -0.000501689
8 9 0.000550416 -0.000592333
8 10 0.000515767 -0.000654388
8 11 0.000461332 -0.000679187
8 12 0.000383625 -0.000684844
8 13 0.000266378 -0.000667996
8 14 0.000113528 -0.000578648
8 15 -5.81432e-005 -0.000439668
8 16 -0.000263533 -0.000269291
8 17 -0.000511223 -2.95749e-005
8 18 -0.000779991 0.000303061
8 19 -0.00105671 0.000676095
8 20 -0.00136385 0.00110088
8 21 -0.00169318 0.00162849
8 22 -0.00200906 0.00222901
8 23 -0.0023171 0.00285053
8 24 -0.00263771 0.0035478
8 25 -0.00294236 0.00434338
8 26 -0.00319693 0.00515361
8 27 -0.00343307 0.00597054
8 28 -0.00365485 0.00687385
8 29 -0.00382451 0.00781699
8 30 -0.00392621 0.00870291
8 31 -0.00400954 0.00959944
8 32 -0.00405871 0.0105605
8 33 -0.0040424 0.0114674
8 34 -0.00396672 0.0122797
8 35 -0.00389057 0.0131282
8 36 -0.00377242 0.0139816
8 37 -0.00359746 0.0146991
8 38 -0.00339851 0.0153545
8 39 -0.00322247 0.0160702
8 40 -0.00299355 0.0166985
8 41 -0.00273875 0.0171739
8 42 -0.00250597 0.0176776
8 43 -0.00229558 0.0182137
8 44 -0.00201926 0.0185696
8 45 -0.00177398 0.0188547
8 46 -0.00157406 0.019247
8 47 -0.00136016 0.0195623
8 48 -0.00109244 0.0196769
8 49 -0.000925339 0.0198805
8 50 -0.000768013 0.0201622
8 51 -0.000554076 0.020227
8 52 -0.000350235 0.0202134
8 53 -0.000281456 0.0204184
8 54 -0.000122202 0.0205205
8 55 7.80439e-005 0.0203722
8 56 0.000172727 0.020387
8 57 0.000194117 0.0205654
8 58 0.000411557 0.0204052
8 59 0.000546454 0.0201944
8 60 0.000537081 0.0203297
8 61 0.000622345 0.0203264
8 62 0.000899909 0.0199285
8 63 0.000899722 0.0198692
8 64 0.000884927 0.020028
8 65 0.00113475 0.019673
8 66 0.00137623 0.019251
8 67 0.00122714 0.0194448
8 68 0.00138418 0.0193269
8 69 0.00177487 0.0186386
8 70 0.0018215 0.0185063
8 71 0.00164175 0.0187448
8 72 0.00210895 0.0180396
8 73 0.00241811 0.0173538
8 74 0.00217248 0.0176387
8 75 0.00219492 0.0173869
8 76 0.00289922 0.0161156
8 77 0.00275707 0.0159576
8 78 0.00232048 0.016279
8 79 0.00275043 0.0150145
8 80 0.00330467 0.0138084
8 81 0.00237779 0.0144586
8 82 0.0021422 0.0139141
8 83 0.00297367 0.0118055
8 84 0.00268278 0.0117957
8 85 0.000976431 0.0127194
8 86 0.00171297 0.0105336
8 87 0.00235566 0.00900065
8 88 0.000211735 0.0108705
8 89 -0.00120326 0.0106105
8 90 0.00127159 0.00740255
8 91 -0.00116426 0.00848431
8 92 -0.00483038 0.0105804
8 93 -0.00329334 0.00760968
8 94 -0.00148421 0.00625466
8 95 -0.01117 0.00927321
8 96 -0.0107989 0.00619555
8 97 -0.00247474 0.000466581
8 98 0.022657 -0.00512469
8 99 0.0966279 -0.00102096
8 100 0.1 0
9 0 0 0
9 1 5.92091e-006 2.84897e-006
9 2 0.000216552 -5.69705e-006
9 3 0.000356748 -6.64617e-005
9 4 0.00045996 -0.000146932
9 5 0.000545117 -0.000234759
9 6 0.000595437 -0.000309055
9 7 0.000623092 -0.000398805
9 8 0.000633238 -0.000478447
9 9 0.000616068 -0.000531917
9 10 0.000553936 -0.000557577
9 11 0.00047061 -0.000574249
9 12 0.00035385 -0.000539683
9 13 0.000191948 -0.000447995
9 14 -1.43495e-005 -0.000318103
9 15 -0.000239237 -0.000144646
9 16 -0.000511101 0.000119448
9 17 -0.000824712 0.00044975
9 18 -0.00116018 0.0008243
9 19 -0.00150702 0.00128072
9 20 -0.00189384 0.0018418
9 21 -0.00228955 0.00245208
9 22 -0.00267089 0.00311523
9 23 -0.00305041 0.00388358
9 24 -0.00343934 0.00472778
9 25 -0.00378686 0.00558654
9 26 -0.00408495 0.0065013
9 27 -0.00436971 0.00750103
9 28 -0.00462127 0.00850556
9 29 -0.00478525 0.00948535
9 30 -0.00489316 0.0105066
9 31 -0.00498876 0.0115492
9 32 -0.00501159 0.012518
9 33 -0.00494144 0.0134452
9 34 -0.00484963 0.0143908
9 35 -0.00474768 0.0152809
9 36 -0.00455427 0.0160576
9 37 -0.00431451 0.0168166
9 38 -0.00409852 0.0175634
9 39 -0.00385912 0.0181937
9 40 -0.00353943 0.0187352
9 41 -0.00324876 0.0193006
9 42 -0.00299469 0.0198004
9 43 -0.00268901 0.0201657
9 44 -0.00235256 0.0205211
9 45 -0.00210778 0.0209079
9 46 -0.00185584 0.0211583
9 47 -0.00154297 0.0213275
9 48 -0.00128126 0.0215707
9 49 -0.00111204 0.0217796
9 50 -0.000858414 0.0218142
9 51 -0.000597629 0.0218933
9 52 -0.000455381 0.022058
9 53 -0.000319383 0.0220697
9 54 -6.03322e-005 0.0219715
9 55 8.74214e-005 0.022052
9 56 0.000142088 0.0221003
9 57 0.000320194 0.0219204
9 58 0.00054444 0.0218154
9 59 0.000555932 0.021911
9 60 0.000635406 0.0217605
9 61 0.000889068 0.0214737
9 62 0.000999491 0.0214709
9 63 0.000948178 0.0214806
9 64 0.00118352 0.0210888
9 65 0.00143888 0.020861
9 66 0.00139442 0.0209534
9 67 0.00145759 0.020702
9 68 0.00187622 0.0201603
9 69 0.00196899 0.0201467
9 70 0.00186424 0.0201407
9 71 0.00221822 0.0195134
9 72 0.0026416 0.0190594
9 73 0.00244376 0.0192388
9 74 0.00252103 0.0188054
9 75 0.00314875 0.0179057
9 76 0.00321528 0.0177831
9 77 0.00279868 0.0178278
9 78 0.00331014 0.0167225
9 79 0.00381987 0.0159206
9 80 0.0031948 0.0161239
9 81 0.00292162 0.0154948
9 82 0.0038479 0.0138659
9 83 0.00346966 0.013666
9 84 0.0022627 0.0137817
9 85 0.00265908 0.0121176
9 86 0.00333383 0.0107287
9 87 0.00140616 0.0115237
9 88 0.000485921 0.0107142
9 89 0.00155831 0.00826235
9 90 0.000607132 0.00866677
9 91 -0.00288064 0.00985221
9 92 -0.00178883 0.00671381
9 93 -0.00219698 0.00564003
9 94 -0.00640597 0.00859885
9 95 -0.00724615 0.00667975
9 96 -0.00515463 0.000602051
9 97 -0.00351299 0.0029536
9 98 0.0223309 0.00510678
9 99 0.0966472 -8.90385e-005
9 100 0.1 0
10 0 0 0
10 1 9.21509e-006 1.26294e-006
10 2 0.000248379 -1.74051e-005
10 3 0.000424759 -6.74481e-005
10 4 0.000538348 -0.000135477
10 5 0.00061643 -0.000213343
10 6 0.00067011 -0.000278707
10 7 0.000700642 -0.000354259
10 8 0.000681281 -0.000408716
10 9 0.000636576 -0.000433421
10 10 0.000559049 -0.000429381
10 11 0.000437244 -0.000404835
10 12 0.000257309 -0.000318281
10 13 5.38289e-005 -0.000177226
10 14 -0.000196577 8.68941e-006
10 15 -0.000501472 0.000256254
10 16 -0.000851528 0.000595564
10 17 -0.00121408 0.000996856
10 18 -0.00162536 0.00146247
10 19 -0.00207445 0.00202547
10 20 -0.00253012 0.00268299
10 21 -0.00297819 0.00339594
10 22 -0.00345505 0.00419003
10 23 -0.00392311 0.00508804
10 24 -0.00434418 0.00604227
10 25 -0.004734 0.00702512
10 26 -0.0051127 0.00808145
10 27 -0.00542401 0.00919336
10 28 -0.0056502 0.0102819
10 29 -0.00583328 0.0113622
10 30 -0.00596855 0.0124803
10 31 -0.00600888 0.0135668
10 32 -0.00596807 0.0145599
10 33 -0.00589723 0.0155339
10 34 -0.0057697 0.0164997
10 35 -0.00556057 0.0173562
10 36 -0.00531096 0.0181116
10 37 -0.00506162 0.0188699
10 38 -0.00475852 0.0195674
10 39 -0.00441193 0.020124
10 40 -0.0040792 0.0206379
10 41 -0.00376074 0.0211688
10 42 -0.0033877 0.0215783
10 43 -0.0030271 0.021883
10 44 -0.00271624 0.0222253
10 45 -0.00239692 0.0225435
10 46 -0.00203449 0.0227028
10 47 -0.00175003 0.0228615
10 48 -0.00150018 0.0230865
10 49 -0.00120061 0.0231945
10 50 -0.00091015 0.0231874
10 51 -0.000738423 0.0232999
10 52 -0.000523317 0.0233975
10 53 -0.000254252 0.0233118
10 54 -8.2472e-005 0.0232589
10 55 9.48508e-006 0.0233551
10 56 0.000243675 0.0232697
10 57 0.000445785 0.0230737
10 58 0.000494218 0.0230787
10 59 0.000603904 0.0230849
10 60 0.000877273 0.0227993
10 61 0.000957558 0.0226468
10 62 0.000960368 0.0227043
10 63 0.00119497 0.0224919
10 64 0.00144778 0.0221156
10 65 0.00139241 0.0221343
10 66 0.00150824 0.0220787
10 67 0.00188717 0.0216032
10 68 0.00199862 0.0213621
10 69 0.00190614 0.0214978
10 70 0.00228429 0.0210903
10 71 0.00266425 0.0205244
10 72 0.00255164 0.0205908
10 73 0.00263283 0.0205297
10 74 0.00325726 0.019684
10 75 0.00336092 0.0193894
10 76 0.00309741 0.0196213
10 77 0.00354335 0.0189338
10 78 0.00411584 0.0179352
10 79 0.00367155 0.0181808
10 80 0.00352229 0.0179856
10 81 0.00429285 0.0165248
10 82 0.00423859 0.0160251
10 83 0.00317707 0.0165486
10 84 0.00357086 0.0151843
10 85 0.00418548 0.0136104
10 86 0.00276069 0.0141568
10 87 0.00162197 0.0139626
10 88 0.00302778 0.0115055
10 89 0.00198203 0.0112723
10 90 -0.00100385 0.01217
10 91 -0.000413185 0.0102703
10 92 0.000851709 0.00845843
10 93 -0.00425324 0.00971149
10 94 -0.00593452 0.0082247
10 95 -0.00176251 0.00646136
10 96 -0.00601477 0.00740431
10 97 -0.0032939 0.00597907
10 98 0.0271592 -0.000588387
10 99 0.0985641 -0.000941875
10 100 0.1 0
11 0 0 0
11 1 1.47932e-005 2.56672e-006
11 2 0.000286771 -1.14764e-005
11 3 0.000484664 -6.8041e-005
11 4 0.000609639 -0.000117759
11 5 0.000693044 -0.000186925
11 6 0.00073774 -0.000255325
11 7 0.000754048 -0.000304064
11 8 0.000716135 -0.000322153
11 9 0.000644804 -0.000338847
11 10 0.000526351 -0.000311671
11 11 0.000361352 -0.000225282
11 12 0.000134191 -9.66472e-005
11 13 -0.000128534 6.71601e-005
11 14 -0.000450276 0.000323391
11 15 -0.000821991 0.00065901
11 16 -0.00124369 0.0010452
11 17 -0.00169391 0.00151388
11 18 -0.00219592 0.00210857
11 19 -0.00272298 0.0027775
11 20 -0.00326538 0.00351031
11 21 -0.00381151 0.00436543
11 22 -0.0043699 0.00533241
11 23 -0.00489988 0.00633496
11 24 -0.00538972 0.00739986
11 25 -0.00584169 0.00856963
11 26 -0.00625008 0.00976612