Title= "LBM Lid Driven Flow"
VARIABLES="X","Y","U","V"
ZONE T="BOX",I=101,J=101,F=POINT
0 0 0 0
0 1 0 0
0 2 0 0
0 3 0 0
0 4 0 0
0 5 0 0
0 6 0 0
0 7 0 0
0 8 0 0
0 9 0 0
0 10 0 0
0 11 0 0
0 12 0 0
0 13 0 0
0 14 0 0
0 15 0 0
0 16 0 0
0 17 0 0
0 18 0 0
0 19 0 0
0 20 0 0
0 21 0 0
0 22 0 0
0 23 0 0
0 24 0 0
0 25 0 0
0 26 0 0
0 27 0 0
0 28 0 0
0 29 0 0
0 30 0 0
0 31 0 0
0 32 0 0
0 33 0 0
0 34 0 0
0 35 0 0
0 36 0 0
0 37 0 0
0 38 0 0
0 39 0 0
0 40 0 0
0 41 0 0
0 42 0 0
0 43 0 0
0 44 0 0
0 45 0 0
0 46 0 0
0 47 0 0
0 48 0 0
0 49 0 0
0 50 0 0
0 51 0 0
0 52 0 0
0 53 0 0
0 54 0 0
0 55 0 0
0 56 0 0
0 57 0 0
0 58 0 0
0 59 0 0
0 60 0 0
0 61 0 0
0 62 0 0
0 63 0 0
0 64 0 0
0 65 0 0
0 66 0 0
0 67 0 0
0 68 0 0
0 69 0 0
0 70 0 0
0 71 0 0
0 72 0 0
0 73 0 0
0 74 0 0
0 75 0 0
0 76 0 0
0 77 0 0
0 78 0 0
0 79 0 0
0 80 0 0
0 81 0 0
0 82 0 0
0 83 0 0
0 84 0 0
0 85 0 0
0 86 0 0
0 87 0 0
0 88 0 0
0 89 0 0
0 90 0 0
0 91 0 0
0 92 0 0
0 93 0 0
0 94 0 0
0 95 0 0
0 96 0 0
0 97 0 0
0 98 0 0
0 99 0 0
0 100 0.1 0
1 0 0 0
1 1 -3.47284e-006 2.20376e-006
1 2 8.75221e-007 2.64012e-005
1 3 -2.51027e-006 1.63849e-005
1 4 -7.75186e-007 1.60293e-005
1 5 -3.72627e-006 1.6179e-005
1 6 -1.62511e-006 1.04143e-005
1 7 -5.63425e-006 1.47801e-005
1 8 -2.45393e-006 2.08339e-005
1 9 -5.74004e-006 7.17747e-006
1 10 -4.48103e-006 5.12088e-006
1 11 -7.49623e-006 1.5934e-005
1 12 -3.95234e-006 8.79219e-006
1 13 -8.09521e-006 -1.0067e-005
1 14 -6.27984e-006 -2.07563e-006
1 15 -7.82671e-006 3.3008e-007
1 16 -4.3603e-006 -2.61747e-005
1 17 -8.84568e-006 -3.86899e-005
1 18 -4.46598e-006 -2.63885e-005
1 19 -4.85061e-006 -4.66753e-005
1 20 -1.33439e-006 -8.12566e-005
1 21 -4.49121e-006 -7.53564e-005
1 22 3.90027e-006 -7.2952e-005
1 23 3.28976e-006 -0.000114819
1 24 7.89587e-006 -0.000130103
1 25 7.78395e-006 -0.00010474
1 26 1.94505e-005 -0.000125231
1 27 1.65399e-005 -0.00016145
1 28 2.42419e-005 -0.000131813
1 29 2.68046e-005 -0.000105618
1 30 3.83627e-005 -0.000143851
1 31 3.19946e-005 -0.00013114
1 32 4.47246e-005 -6.2334e-005
1 33 4.58018e-005 -6.41116e-005
1 34 5.34933e-005 -8.55869e-005
1 35 4.49409e-005 1.98133e-007
1 36 6.23906e-005 5.79413e-005
1 37 5.5145e-005 1.92009e-005
1 38 5.89394e-005 6.34665e-005
1 39 5.11086e-005 0.000189196
1 40 6.92369e-005 0.000170152
1 41 4.86348e-005 0.000133605
1 42 5.4624e-005 0.000264751
1 43 4.85017e-005 0.00033661
1 44 6.07288e-005 0.000224299
1 45 2.88348e-005 0.000271176
1 46 4.66501e-005 0.00043471
1 47 3.67671e-005 0.000355328
1 48 3.90826e-005 0.00023767
1 49 6.97905e-006 0.000421098
1 50 4.13976e-005 0.000476504
1 51 1.54892e-005 0.00024999
1 52 1.4409e-005 0.000289319
1 53 -4.11982e-006 0.000528885
1 54 3.80724e-005 0.000337665
1 55 -1.339e-005 0.000140907
1 56 2.39539e-006 0.000422263
1 57 -9.29997e-007 0.000486913
1 58 2.93699e-005 8.48166e-005
1 59 -3.95219e-005 0.000180289
1 60 1.53048e-005 0.000544918
1 61 5.45372e-006 0.000232317
1 62 1.36674e-005 -8.91406e-005
1 63 -4.54978e-005 0.000394352
1 64 4.99003e-005 0.000479264
1 65 -3.93535e-007 -0.00012966
1 66 4.70024e-006 -2.66767e-006
1 67 -2.09313e-005 0.000616476
1 68 8.76602e-005 0.0001429
1 69 -2.02985e-005 -0.000356388
1 70 2.32865e-005 0.000347195
1 71 2.69053e-005 0.000608835
1 72 0.000111084 -0.000349935
1 73 -3.90362e-005 -0.000230737
1 74 8.31493e-005 0.000763165
1 75 7.8652e-005 0.000217899
1 76 0.000116838 -0.000741797
1 77 -3.33038e-005 0.000323444
1 78 0.00018816 0.000920297
1 79 0.000113467 -0.000565604
1 80 0.000117118 -0.000694214
1 81 2.71672e-005 0.00117673
1 82 0.000334111 0.000394468
1 83 0.000114505 -0.00154141
1 84 0.000144475 0.000186415
1 85 0.000191604 0.00179821
1 86 0.00049979 -0.00131232
1 87 7.65047e-005 -0.00203622
1 88 0.000285249 0.00215238
1 89 0.000541311 0.000710704
1 90 0.000620863 -0.00450523
1 91 3.32474e-005 -0.000175946
1 92 0.000750285 0.00480554
1 93 0.00121591 -0.00553689
1 94 0.000763058 -0.0108325
1 95 4.71339e-005 0.00686828
1 96 0.00247553 0.00316596
1 97 0.00228997 -0.0234776
1 98 -0.00303346 0.0337005
1 99 0.00728866 0.0123554
1 100 0.1 0
2 0 0 0
2 1 -2.71485e-005 -3.30419e-006
2 2 6.41853e-006 -1.11642e-005
2 3 -1.25014e-005 1.02418e-005
2 4 1.96246e-005 2.90335e-006
2 5 -9.52906e-006 -2.17867e-005
2 6 3.0589e-005 -4.29468e-005
2 7 -2.75521e-006 -8.67054e-005
2 8 3.4495e-005 -0.000145163
2 9 8.4801e-006 -0.000197727
2 10 4.13786e-005 -0.000258005
2 11 1.22003e-005 -0.00035054
2 12 5.27924e-005 -0.000442152
2 13 2.43926e-005 -0.000528832
2 14 5.68611e-005 -0.000643034
2 15 3.16566e-005 -0.000779722
2 16 7.06847e-005 -0.000894825
2 17 3.36234e-005 -0.00101682
2 18 6.93341e-005 -0.00116866
2 19 3.73272e-005 -0.00130483
2 20 6.94326e-005 -0.00140341
2 21 2.016e-005 -0.00152041
2 22 5.94209e-005 -0.00163372
2 23 7.10241e-006 -0.00168198
2 24 3.4607e-005 -0.00169845
2 25 -2.67406e-005 -0.00172861
2 26 1.45689e-005 -0.00169316
2 27 -6.48525e-005 -0.00157298
2 28 -2.74566e-005 -0.0014512
2 29 -0.000100868 -0.00130858
2 30 -5.7759e-005 -0.00104901
2 31 -0.000157384 -0.000745251
2 32 -8.92526e-005 -0.000467459
2 33 -0.000182811 -0.000110626
2 34 -0.000130779 0.000354944
2 35 -0.000230046 0.000776989
2 36 -0.00011957 0.00118518
2 37 -0.000250356 0.0017174
2 38 -0.000165197 0.00226627
2 39 -0.000246071 0.00269555
2 40 -0.000106235 0.00317663
2 41 -0.000285112 0.00375818
2 42 -0.000125932 0.00421079
2 43 -0.000202037 0.00455676
2 44 -6.57865e-005 0.00503615
2 45 -0.000274935 0.00548622
2 46 -6.83705e-006 0.0057051
2 47 -0.000142442 0.00595431
2 48 -2.26224e-005 0.00633887
2 49 -0.000208651 0.00649241
2 50 0.00015181 0.00647949
2 51 -0.000134254 0.00667956
2 52 3.45096e-005 0.00684284
2 53 -8.91482e-005 0.00664697
2 54 0.000266349 0.00655845
2 55 -0.000198904 0.00671493
2 56 0.000158921 0.00652497
2 57 2.42039e-005 0.00612028
2 58 0.000265613 0.00614589
2 59 -0.000264453 0.00612753
2 60 0.000368441 0.00557015
2 61 1.76817e-005 0.00526281
2 62 0.000184448 0.00542304
2 63 -0.000234288 0.00502947
2 64 0.000573258 0.0043411
2 65 -0.000168522 0.00439945
2 66 0.000160228 0.00445408
2 67 -0.000118959 0.00365184
2 68 0.000649962 0.00326173
2 69 -0.000460715 0.00366584
2 70 0.000295811 0.00328082
2 71 -2.88327e-005 0.00236505
2 72 0.000561262 0.00262421
2 73 -0.000733966 0.00301003
2 74 0.000607342 0.00204597
2 75 -7.1377e-005 0.00154665
2 76 0.000329585 0.00247621
2 77 -0.000874203 0.00230787
2 78 0.00109278 0.000995512
2 79 -0.000384018 0.00146341
2 80 7.64337e-006 0.00264334
2 81 -0.000698896 0.00145889
2 82 0.0016631 0.000491441
2 83 -0.00122797 0.00229823
2 84 -0.000146434 0.00279111
2 85 7.30858e-005 0.000544313
2 86 0.00179022 0.00124902
2 87 -0.00286597 0.00425997
2 88 0.000701613 0.00263612
2 89 0.00162414 0.00033562
2 90 -0.000227998 0.00483962
2 91 -0.00517294 0.00789781
2 92 0.00452147 0.00286928
2 93 0.0046787 0.00280694
2 94 -0.00793662 0.0145579
2 95 -0.00944405 0.0178057
2 96 0.0158707 0.0135142
2 97 -0.0175654 0.040272
2 98 -0.0254829 0.034942
2 99 0.0904808 0.000725487
2 100 0.1 0
3 0 0 0
3 1 -1.79692e-005 7.3738e-007
3 2 -1.21587e-005 2.0377e-005
3 3 -3.60525e-006 8.14605e-006
3 4 3.42564e-005 -1.93767e-005
3 5 3.68779e-005 -6.19679e-005
3 6 7.4913e-005 -0.000120932
3 7 8.5157e-005 -0.000209367
3 8 0.000108647 -0.000310897
3 9 0.000111917 -0.000423487
3 10 0.000150452 -0.000556585
3 11 0.000157425 -0.000713357
3 12 0.000180228 -0.000873576
3 13 0.00019417 -0.00105274
3 14 0.000231447 -0.00125701
3 15 0.000225253 -0.00146692
3 16 0.000243865 -0.00167112
3 17 0.00024964 -0.00189262
3 18 0.000258154 -0.00211172
3 19 0.000219289 -0.00229986
3 20 0.000220434 -0.00246841
3 21 0.000187454 -0.0026259
3 22 0.000145112 -0.00272736
3 23 6.98296e-005 -0.00276673
3 24 4.62885e-005 -0.00277201
3 25 -4.29082e-005 -0.00271886
3 26 -0.000125542 -0.00256745
3 27 -0.000215617 -0.00235425
3 28 -0.000258372 -0.00209415
3 29 -0.000392828 -0.00173402
3 30 -0.000471879 -0.00127988
3 31 -0.00054573 -0.000794576
3 32 -0.000595422 -0.00024617
3 33 -0.000739606 0.000411679
3 34 -0.000760517 0.00110457
3 35 -0.000798864 0.00179456
3 36 -0.000839553 0.00256535
3 37 -0.00094596 0.00340002
3 38 -0.000870596 0.00418079
3 39 -0.000880105 0.00495388
3 40 -0.000894241 0.00580566
3 41 -0.000920233 0.00661821
3 42 -0.000750596 0.00731372
3 43 -0.000769594 0.00803849
3 44 -0.000736194 0.0087868
3 45 -0.000664075 0.00937563
3 46 -0.000456247 0.00987112
3 47 -0.000531338 0.0104385
3 48 -0.000412849 0.0109034
3 49 -0.000273044 0.0111579
3 50 -0.000122593 0.0114393
3 51 -0.000253646 0.0117568
3 52 -6.53241e-007 0.0118228
3 53 0.000103451 0.0117843
3 54 0.000125603 0.0118932
3 55 2.93572e-005 0.0118666
3 56 0.000412749 0.0115525
3 57 0.000317991 0.011384
3 58 0.000271349 0.0113138
3 59 0.000333812 0.010884
3 60 0.000701215 0.010381
3 61 0.000311549 0.0102334
3 62 0.000419183 0.00987925
3 63 0.000613834 0.00912976
3 64 0.000733033 0.00873551
3 65 0.000191252 0.00859447
3 66 0.000655754 0.00785188
3 67 0.000705345 0.0070849
3 68 0.000516842 0.00701595
3 69 0.000153263 0.00667038
3 70 0.000901958 0.00562636
3 71 0.000480447 0.00527796
3 72 0.000252543 0.00546075
3 73 0.000284666 0.00465146
3 74 0.000991232 0.00369983
3 75 4.2725e-006 0.00408534
3 76 0.000162607 0.00407691
3 77 0.000518418 0.00275216
3 78 0.000830117 0.00253903
3 79 -0.00053919 0.00354303
3 80 0.00036972 0.00266166
3 81 0.000720576 0.00126334
3 82 0.000348966 0.00248157
3 83 -0.000950748 0.0032656
3 84 0.000956765 0.000977859
3 85 0.000583033 0.000795717
3 86 -0.00067204 0.00371355
3 87 -0.000978627 0.0024696
3 88 0.00206191 -0.000799679
3 89 -0.000706591 0.00276086
3 90 -0.00281657 0.00601264
3 91 -0.000616948 -7.00402e-005
3 92 0.00419946 -0.00125166
3 93 -0.00333407 0.0105667
3 94 -0.00995781 0.00907583
3 95 -0.00399606 -0.00447066
3 96 -0.00573695 0.0149448
3 97 -0.0344846 0.0271931
3 98 0.010014 0.0122716
3 99 0.10108 -9.02102e-005
3 100 0.1 0
4 0 0 0
4 1 -9.77462e-006 -1.90134e-006
4 2 -8.18031e-006 -3.36304e-005
4 3 1.69287e-005 -4.91267e-005
4 4 7.34289e-005 -7.76961e-005
4 5 0.000121412 -0.000158079
4 6 0.000158609 -0.00027451
4 7 0.0002006 -0.000396208
4 8 0.000231423 -0.000528278
4 9 0.000267729 -0.000703861
4 10 0.000299959 -0.000889817
4 11 0.000340599 -0.00107313
4 12 0.000368288 -0.00128508
4 13 0.000405824 -0.00152767
4 14 0.000429762 -0.00174931
4 15 0.000451202 -0.00196947
4 16 0.000453692 -0.00221608
4 17 0.000455702 -0.00244136
4 18 0.000427885 -0.00261046
4 19 0.000392083 -0.00277534
4 20 0.000331605 -0.00292204
4 21 0.000260233 -0.00297695
4 22 0.000155264 -0.00296497
4 23 5.09103e-005 -0.00293803
4 24 -8.07258e-005 -0.00282436
4 25 -0.000220155 -0.00258445
4 26 -0.000378344 -0.00230839
4 27 -0.00052048 -0.00199226
4 28 -0.000691743 -0.00153523
4 29 -0.000851346 -0.000986373
4 30 -0.00100733 -0.000448205
4 31 -0.00113878 0.00017632
4 32 -0.00130184 0.00094578
4 33 -0.00141927 0.00171519
4 34 -0.0015177 0.0024546
4 35 -0.00159688 0.0033316
4 36 -0.0017038 0.00428275
4 37 -0.00172395 0.00512914
4 38 -0.00173485 0.00598114
4 39 -0.00173952 0.00698399
4 40 -0.00175271 0.0079181
4 41 -0.00165209 0.00869725
4 42 -0.00158854 0.00956527
4 43 -0.00151979 0.0105086
4 44 -0.00142759 0.0112223
4 45 -0.00123456 0.0118489
4 46 -0.00114689 0.0126319
4 47 -0.00101452 0.0133054
4 48 -0.000838963 0.0136808
4 49 -0.000629797 0.0141543
4 50 -0.000565921 0.014724
4 51 -0.000367417 0.0149572
4 52 -0.000170138 0.0150313
4 53 -3.14803e-005 0.0153812
4 54 1.43364e-005 0.015562
4 55 0.000281013 0.0153242
4 56 0.00039764 0.0152728
4 57 0.000435227 0.0154377
4 58 0.00052889 0.0150701
4 59 0.000809142 0.0145599
4 60 0.000742455 0.0145442
4 61 0.000761407 0.0143076
4 62 0.000946639 0.0134321
4 63 0.00109775 0.0130234
4 64 0.000845453 0.0129674
4 65 0.00100484 0.0121176
4 66 0.00118516 0.0111306
4 67 0.00106777 0.0110893
4 68 0.000799098 0.0106432
4 69 0.00117938 0.00931512
4 70 0.00112306 0.00881896
4 71 0.000772359 0.0089853
4 72 0.000738154 0.00784728
4 73 0.00121962 0.00667038
4 74 0.000723093 0.00700793
4 75 0.000407819 0.0068139
4 76 0.000759644 0.00514579
4 77 0.00103318 0.00493778
4 78 7.92733e-005 0.0058126
4 79 0.000240707 0.00468105
4 80 0.000873637 0.00322713
4 81 0.00045533 0.00449704
4 82 -0.000619444 0.00497642
4 83 0.000547136 0.0028128
4 84 0.000822745 0.00278485
4 85 -0.000851665 0.00530516
4 86 -0.00103059 0.00411565
4 87 0.00140586 0.00181397
4 88 -0.000193885 0.00472426
4 89 -0.00314233 0.00696954
4 90 -0.000466688 0.0030385
4 91 0.00167628 0.00307399
4 92 -0.00372375 0.0103019
4 93 -0.00507003 0.00909434
4 94 -0.00075836 0.00319402
4 95 -0.00974894 0.0127436
4 96 -0.0154918 0.0124795
4 97 -0.00836227 -0.00918741
4 98 0.0109298 -0.0175556
4 99 0.092971 -0.00111198
4 100 0.1 0
5 0 0 0
5 1 -1.43998e-005 2.56002e-006
5 2 1.80006e-005 1.33459e-005
5 3 6.34668e-005 -4.71129e-005
5 4 0.000147868 -0.000131729
5 5 0.000228988 -0.000235828
5 6 0.000292695 -0.000359011
5 7 0.000349066 -0.000513345
5 8 0.000407773 -0.000690453
5 9 0.000466184 -0.000887072
5 10 0.000505609 -0.00109023
5 11 0.000561209 -0.0013123
5 12 0.000613133 -0.00154608
5 13 0.000650085 -0.00177997
5 14 0.000666297 -0.00200709
5 15 0.000694155 -0.00223578
5 16 0.000686445 -0.00244262
5 17 0.000646843 -0.00261315
5 18 0.000589408 -0.00275218
5 19 0.000525549 -0.00285307
5 20 0.000399513 -0.00288453
5 21 0.00025344 -0.00285041
5 22 0.000101296 -0.00276263
5 23 -7.4396e-005 -0.00259617
5 24 -0.000307847 -0.00233606
5 25 -0.000520641 -0.00201108
5 26 -0.000732848 -0.00162199
5 27 -0.000978013 -0.00113331
5 28 -0.00124415 -0.000565127
5 29 -0.00144695 4.57295e-005
5 30 -0.00166324 0.000726458
5 31 -0.00190626 0.00150283
5 32 -0.0021134 0.00231372
5 33 -0.00223939 0.0031431
5 34 -0.00240783 0.00404538
5 35 -0.00256862 0.00500723
5 36 -0.00264094 0.00594167
5 37 -0.00265405 0.00688362
5 38 -0.00273303 0.00788619
5 39 -0.00274372 0.00887695
5 40 -0.00265162 0.00978941
5 41 -0.00256077 0.0107199
5 42 -0.00253072 0.0116674
5 43 -0.00236608 0.0125178
5 44 -0.00215231 0.0132868
5 45 -0.00200715 0.0140935
5 46 -0.00186824 0.0148333
5 47 -0.00156324 0.0154257
5 48 -0.00133092 0.0159956
5 49 -0.00117707 0.0165874
5 50 -0.000935755 0.017006
5 51 -0.000582885 0.0173163
5 52 -0.000437412 0.0176811
5 53 -0.000264799 0.0179685
5 54 5.47147e-005 0.0180227
5 55 0.000326076 0.0181103
5 56 0.000352271 0.0182454
5 57 0.000608615 0.0181416
5 58 0.000919366 0.0178885
5 59 0.000998475 0.0178289
5 60 0.000989991 0.0176395
5 61 0.00136667 0.0171258
5 62 0.00149923 0.0167214
5 63 0.0013864 0.0165084
5 64 0.00149911 0.015875
5 65 0.00188762 0.0151002
5 66 0.00167572 0.0147171
5 67 0.00155094 0.0142204
5 68 0.00185682 0.0131596
5 69 0.0019872 0.0124572
5 70 0.00145811 0.0121404
5 71 0.00161256 0.0112092
5 72 0.00192878 0.0100246
5 73 0.00156889 0.00975169
5 74 0.00106848 0.00932528
5 75 0.00164862 0.00798748
5 76 0.00155704 0.00723339
5 77 0.000809136 0.00748121
5 78 0.000837443 0.00659234
5 79 0.00159943 0.00521253
5 80 0.000706543 0.00546053
5 81 8.03903e-005 0.00579318
5 82 0.000949993 0.00411813
5 83 0.00120107 0.00350852
5 84 -0.000563723 0.00500029
5 85 -0.000329635 0.00438155
5 86 0.00121008 0.00205661
5 87 -0.0001376 0.0035529
5 88 -0.00221359 0.00565631
5 89 -0.000338143 0.00280983
5 90 0.000723772 0.00141927
5 91 -0.00325017 0.00628725
5 92 -0.00498344 0.00612965
5 93 -0.000444231 0.00214488
5 94 -0.00442074 0.00764251
5 95 -0.0143673 0.00688785
5 96 0.000426557 -0.00345193
5 97 -0.00782893 0.000494363
5 98 0.00376957 0.00783812
5 99 0.0875703 0.00121159
5 100 0.1 0
6 0 0 0
6 1 -1.19482e-005 -2.1154e-006
6 2 4.8093e-005 -3.7306e-005
6 3 0.000136204 -8.30571e-005
6 4 0.000251084 -0.000173517
6 5 0.000347393 -0.000301594
6 6 0.000446688 -0.000443987
6 7 0.000523872 -0.000624813
6 8 0.000594581 -0.000819209
6 9 0.000659452 -0.00101007
6 10 0.000724515 -0.00121508
6 11 0.000778679 -0.00144655
6 12 0.000823968 -0.00165454
6 13 0.000857925 -0.00184343
6 14 0.000874881 -0.00204119
6 15 0.000861843 -0.00221716
6 16 0.000821492 -0.00232502
6 17 0.000753687 -0.00240468
6 18 0.000649885 -0.00246011
6 19 0.000502263 -0.00242791
6 20 0.000327563 -0.00230937
6 21 0.000124881 -0.0021637
6 22 -0.00011389 -0.00194726
6 23 -0.000384249 -0.0016082
6 24 -0.00065714 -0.001214
6 25 -0.000946966 -0.000794979
6 26 -0.00125673 -0.000263561
6 27 -0.00156964 0.000370348
6 28 -0.00185609 0.00100286
6 29 -0.00215118 0.00168141
6 30 -0.00244368 0.0024917
6 31 -0.00270904 0.00333377
6 32 -0.00292537 0.00413445
6 33 -0.00314758 0.00502539
6 34 -0.00334052 0.0060159
6 35 -0.00347873 0.00694028
6 36 -0.00355869 0.00782888
6 37 -0.00364862 0.00884113
6 38 -0.00367742 0.00985207
6 39 -0.00364009 0.0107208
6 40 -0.00356148 0.0116139
6 41 -0.00349876 0.0126081
6 42 -0.00334367 0.0134582
6 43 -0.00314784 0.0141774
6 44 -0.00294887 0.0150042
6 45 -0.0027567 0.01582
6 46 -0.00245562 0.0163878
6 47 -0.00218322 0.0169533
6 48 -0.00193086 0.0176465
6 49 -0.00164796 0.0181455
6 50 -0.00128141 0.0184326
6 51 -0.00103379 0.0188976
6 52 -0.000763323 0.0193524
6 53 -0.000425645 0.0194695
6 54 -9.68768e-005 0.019594
6 55 7.02925e-005 0.0199588
6 56 0.000380244 0.0200262
6 57 0.000712849 0.0198249
6 58 0.000909893 0.0199206
6 59 0.00103172 0.0200355
6 60 0.00140527 0.0196143
6 61 0.00161684 0.0192938
6 62 0.00165881 0.019352
6 63 0.00183124 0.0189576
6 64 0.00219975 0.0181524
6 65 0.002158 0.0179366
6 66 0.00213728 0.0177069
6 67 0.00240591 0.0166688
6 68 0.00258333 0.0158647
6 69 0.00225589 0.0157815
6 70 0.00234212 0.0148978
6 71 0.0026078 0.0135173
6 72 0.00240049 0.0131927
6 73 0.00194859 0.0129073
6 74 0.00228949 0.0112901
6 75 0.00230942 0.0103557
6 76 0.00168245 0.0106183
6 77 0.00145599 0.00960114
6 78 0.00205516 0.00783814
6 79 0.0014877 0.0081377
6 80 0.000697579 0.00837235
6 81 0.0011151 0.00643128
6 82 0.00162673 0.00569827
6 83 0.00010913 0.00726552
6 84 -0.000141187 0.00635302
6 85 0.00107045 0.00418547
6 86 0.00046703 0.00572936
6 87 -0.0019427 0.00735814
6 88 -0.000323176 0.00449176
6 89 0.000594127 0.00404681
6 90 -0.00295069 0.00827477
6 91 -0.00408362 0.0078222
6 92 -2.36444e-005 0.00398294
6 93 -0.00478211 0.00788899
6 94 -0.00916018 0.0113828
6 95 -0.00444963 0.00703696
6 96 0.00149464 0.00926602
6 97 -0.0138856 0.0125326
6 98 0.0107338 0.00198513
6 99 0.0940047 -0.000537406
6 100 0.1 0
7 0 0 0
7 1 -2.23463e-006 2.59047e-006
7 2 8.68379e-005 3.35178e-006
7 3 0.000221279 -8.18606e-005
7 4 0.000368597 -0.000186807
7 5 0.000490106 -0.000318764
7 6 0.000611707 -0.000471832
7 7 0.000711527 -0.000644734
7 8 0.000791586 -0.000823586
7 9 0.000861454 -0.00102054
7 10 0.000936322 -0.00121535
7 11 0.000985889 -0.00139698
7 12 0.00101488 -0.00156582
7 13 0.00103527 -0.00172749
7 14 0.00103118 -0.00184875
7 15 0.000973465 -0.00192512
7 16 0.000888953 -0.00196731
7 17 0.000777367 -0.00196114
7 18 0.00061023 -0.00187429
7 19 0.000387996 -0.00172728
7 20 0.000154648 -0.00153016
7 21 -0.000116566 -0.00125
7 22 -0.000440577 -0.00088106
7 23 -0.000783018 -0.00046553
7 24 -0.00111079 8.59149e-006
7 25 -0.00148024 0.000578584
7 26 -0.0018693 0.00121085
7 27 -0.00222909 0.00186858
7 28 -0.00256401 0.00259535
7 29 -0.00294112 0.00340767
7 30 -0.00328366 0.00423845
7 31 -0.00356275 0.00508342
7 32 -0.00382694 0.00600274
7 33 -0.00411503 0.00696804
7 34 -0.00430377 0.00790184
7 35 -0.00442761 0.00884869
7 36 -0.00455253 0.00985182
7 37 -0.00465811 0.0108317
7 38 -0.00462033 0.011743
7 39 -0.0045623 0.0126752
7 40 -0.00451072 0.0136134
7 41 -0.00438807 0.0144559
7 42 -0.0041348 0.0152346
7 43 -0.00394087 0.0160433
7 44 -0.00372364 0.0167824
7 45 -0.00340585 0.0173947
7 46 -0.00303893 0.0179983
7 47 -0.00279126 0.0186144
7 48 -0.00244276 0.0190816
7 49 -0.0020293 0.0194694
7 50 -0.00167803 0.0199151
7 51 -0.00142003 0.0202956
7 52 -0.000977641 0.0204926
7 53 -0.000597671 0.0207342
7 54 -0.000332153 0.0210291
7 55 -3.90631e-005 0.0211336
7 56 0.000437287 0.0211278
7 57 0.000672747 0.021293
7 58 0.000888223 0.021366
7 59 0.00125521 0.0211722
7 60 0.00165502 0.0210645
7 61 0.00170611 0.0211173
7 62 0.00198132 0.020827
7 63 0.00237697 0.0203855
7 64 0.00255634 0.0202392
7 65 0.00249047 0.0199965
7 66 0.00290819 0.0192538
7 67 0.0031398 0.0187201
7 68 0.00301199 0.0184701
7 69 0.0029982 0.0177063
7 70 0.00348601 0.0166483
7 71 0.003271 0.0162167
7 72 0.00295994 0.0156569
7 73 0.00317629 0.014355
7 74 0.00342788 0.0134008
7 75 0.00264131 0.0131517
7 76 0.00256592 0.0120778
7 77 0.00296514 0.010616
7 78 0.0025616 0.0102725
7 79 0.00154549 0.0100302
7 80 0.0021781 0.00842092
7 81 0.0022383 0.00749618
7 82 0.00102906 0.00799105
7 83 0.000572562 0.00727545
7 84 0.00188382 0.00542934
7 85 0.000663272 0.00585383
7 86 -0.000854028 0.00673587
7 87 -1.07048e-005 0.00492184
7 88 0.000954009 0.00385573
7 89 -0.00226568 0.00622858
7 90 -0.00305354 0.00577832
7 91 -0.00112464 0.00296324
7 92 -0.00247649 0.00549374
7 93 -0.00830079 0.00779371
7 94 -0.00429729 0.00328525
7 95 -0.00649738 0.00354379
7 96 -0.0107245 0.0104034
7 97 -0.00885092 0.0140604
7 98 0.0210588 0.00850673
7 99 0.0963645 -0.000176113
7 100 0.1 0
8 0 0 0
8 1 5.46685e-007 -1.24219e-006
8 2 0.000132464 -4.47824e-005
8 3 0.000302093 -0.000102523
8 4 0.000477379 -0.000180349
8 5 0.00063929 -0.000313916
8 6 0.000767875 -0.00047136
8 7 0.000874678 -0.000628159
8 8 0.000968457 -0.000783622
8 9 0.00104254 -0.00095893
8 10 0.00109213 -0.00111333
8 11 0.00113078 -0.00123803
8 12 0.00114911 -0.00135162
8 13 0.001129 -0.0014436
8 14 0.00106937 -0.00146674
8 15 0.000982309 -0.00144339
8 16 0.000847107 -0.00138839
8 17 0.00065305 -0.00125967
8 18 0.00041984 -0.00103931
8 19 0.000156119 -0.000778291
8 20 -0.000161505 -0.000462309
8 21 -0.000522977 -4.23449e-005
8 22 -0.000893341 0.000446326
8 23 -0.00128243 0.000957064
8 24 -0.00170824 0.00154678
8 25 -0.0021401 0.00223508
8 26 -0.00254759 0.00294127
8 27 -0.00296488 0.00366802
8 28 -0.00339027 0.00449586
8 29 -0.00378201 0.00537839
8 30 -0.00412769 0.0062288
8 31 -0.00447363 0.00712352
8 32 -0.00478999 0.0081113
8 33 -0.0050386 0.00907258
8 34 -0.00522832 0.00997578
8 35 -0.00540673 0.0109512
8 36 -0.00551599 0.011955
8 37 -0.00554011 0.012844
8 38 -0.00551368 0.0136955
8 39 -0.00546997 0.0146233
8 40 -0.00532913 0.015468
8 41 -0.00512431 0.0161645
8 42 -0.00490246 0.0168932
8 43 -0.00465755 0.0176484
8 44 -0.00431194 0.0182146
8 45 -0.00396623 0.0187052
8 46 -0.00363313 0.0192922
8 47 -0.00325674 0.0197878
8 48 -0.00281182 0.0200762
8 49 -0.00244867 0.0204455
8 50 -0.00207716 0.0208753
8 51 -0.00163798 0.0210809
8 52 -0.00121054 0.0212096
8 53 -0.000908809 0.0215409
8 54 -0.000507436 0.0217524
8 55 -6.71222e-005 0.0217203
8 56 0.000254266 0.0218464
8 57 0.000512062 0.0221048
8 58 0.000970456 0.0220169
8 59 0.00132718 0.0218856
8 60 0.00152323 0.0220652
8 61 0.00182841 0.0220658
8 62 0.00231137 0.0216718
8 63 0.0024797 0.0215932
8 64 0.00262361 0.0216645
8 65 0.00303008 0.0211886
8 66 0.00338249 0.0206341
8 67 0.00330602 0.0206294
8 68 0.00351729 0.0202381
8 69 0.00392101 0.0192615
8 70 0.00392819 0.0188116
8 71 0.00367533 0.018646
8 72 0.00401775 0.0174964
8 73 0.0041536 0.0163996
8 74 0.00371374 0.0162414
8 75 0.00349856 0.0154753
8 76 0.00391059 0.0137589
8 77 0.00348747 0.0132613
8 78 0.00278018 0.0131817
8 79 0.00290403 0.0115347
8 80 0.00315299 0.0101779
8 81 0.00199327 0.0107413
8 82 0.00155015 0.0100036
8 83 0.00218499 0.00789937
8 84 0.00169139 0.00814371
8 85 -0.00011044 0.00918119
8 86 0.000596032 0.0070635
8 87 0.00114335 0.00593118
8 88 -0.0011673 0.00821961
8 89 -0.00242059 0.00807396
8 90 9.23062e-005 0.00515666
8 91 -0.00252779 0.00680925
8 92 -0.00599044 0.00912042
8 93 -0.00399461 0.00624345
8 94 -0.00227737 0.00537411
8 95 -0.011411 0.00895966
8 96 -0.0103756 0.00615233
8 97 -0.00141187 0.000518566
8 98 0.0235307 -0.00507429
8 99 0.0966296 -0.0010208
8 100 0.1 0
9 0 0 0
9 1 5.81041e-006 2.02647e-006
9 2 0.00017437 6.95792e-006
9 3 0.000386369 -6.66527e-005
9 4 0.000585479 -0.000169161
9 5 0.000774278 -0.000283523
9 6 0.000914416 -0.000397573
9 7 0.00102879 -0.000537573
9 8 0.00111929 -0.000677242
9 9 0.00118696 -0.00079619
9 10 0.0012158 -0.000894244
9 11 0.00123092 -0.000984752
9 12 0.00121445 -0.00102722
9 13 0.00115195 -0.0010146
9 14 0.00104146 -0.000966167
9 15 0.000901954 -0.000871943
9 16 0.000701147 -0.00068907
9 17 0.000442018 -0.000443029
9 18 0.000144251 -0.000155911
9 19 -0.000186642 0.000210096
9 20 -0.000579056 0.000670705
9 21 -0.00100163 0.00117025
9 22 -0.00143188 0.00171423
9 23 -0.00188734 0.00235437
9 24 -0.00237808 0.00305886
9 25 -0.00285399 0.00377394
9 26 -0.00331185 0.00454875
9 27 -0.00378866 0.00541431
9 28 -0.0042593 0.00629404
9 29 -0.00467068 0.00717223
9 30 -0.00505415 0.00812238
9 31 -0.00544249 0.00912068
9 32 -0.00576464 0.0100745
9 33 -0.00599874 0.0110267
9 34 -0.00620815 0.0120333
9 35 -0.00638847 0.0130084
9 36 -0.00644793 0.0138946
9 37 -0.00643207 0.0147894
9 38 -0.00640378 0.0156854
9 39 -0.00630551 0.0164691
9 40 -0.00607804 0.0171706
9 41 -0.00583846 0.017897
9 42 -0.0055902 0.0185494
9 43 -0.00524341 0.0190601
9 44 -0.00482727 0.0195554
9 45 -0.00447235 0.0200695
9 46 -0.00407462 0.0204355
9 47 -0.00359031 0.0207163
9 48 -0.00314205 0.021064
9 49 -0.00276609 0.0213663
9 50 -0.00228767 0.0214929
9 51 -0.00180358 0.0216682
9 52 -0.00143211 0.0219254
9 53 -0.00104844 0.0220253
9 54 -0.000548816 0.0220244
9 55 -0.000172073 0.0222111
9 56 0.000128856 0.0223592
9 57 0.000560124 0.0222765
9 58 0.00100896 0.0222812
9 59 0.00125105 0.0224864
9 60 0.00157853 0.0224236
9 61 0.00206013 0.0222176
9 62 0.00237231 0.0222992
9 63 0.00254104 0.0223643
9 64 0.00297968 0.0219858
9 65 0.00340534 0.021759
9 66 0.0035124 0.0218268
9 67 0.00371494 0.0214844
9 68 0.00422374 0.0208066
9 69 0.00437922 0.0206344
9 70 0.00428751 0.020398
9 71 0.00460817 0.0194706
9 72 0.00495167 0.0187016
9 73 0.00462656 0.0185168
9 74 0.00450242 0.0176363
9 75 0.00490655 0.0163021
9 76 0.00469585 0.0157653
9 77 0.00395121 0.0153281
9 78 0.00413583 0.0137603
9 79 0.00431002 0.0126311
9 80 0.00328617 0.0125187
9 81 0.00269891 0.0115498
9 82 0.00336436 0.00975813
9 83 0.0026388 0.00956699
9 84 0.00115385 0.0096377
9 85 0.00149327 0.0079632
9 86 0.00197253 0.00683119
9 87 -0.000215413 0.00795236
9 88 -0.00108069 0.00727639
9 89 8.99361e-005 0.00510113
9 90 -0.00114547 0.00606944
9 91 -0.00453239 0.00756141
9 92 -0.00308961 0.00460021
9 93 -0.00348914 0.00414533
9 94 -0.00760759 0.00763756
9 95 -0.00774726 0.00585211
9 96 -0.00501142 0.000111927
9 97 -0.00264268 0.00294842
9 98 0.0231676 0.00517864
9 99 0.0967753 -9.98363e-005
9 100 0.1 0
10 0 0 0
10 1 9.62619e-006 -2.07899e-006
10 2 0.000203504 -2.98068e-005
10 3 0.000459905 -6.72171e-005
10 4 0.000678254 -0.000132939
10 5 0.000874234 -0.000224932
10 6 0.00102855 -0.000319631
10 7 0.00115249 -0.000429322
10 8 0.00121946 -0.000523693
10 9 0.00126505 -0.000591785
10 10 0.00128098 -0.000636588
10 11 0.00125753 -0.00065938
10 12 0.00117915 -0.000620758
10 13 0.00107595 -0.000527532
10 14 0.000920535 -0.000390907
10 15 0.000700622 -0.000191457
10 16 0.000425381 9.50478e-005
10 17 0.000122289 0.000436675
10 18 -0.000245434 0.000832755
10 19 -0.000668513 0.0013143
10 20 -0.00111482 0.0018718
10 21 -0.00157602 0.0024657
10 22 -0.00208901 0.00312202
10 23 -0.00261827 0.00386453
10 24 -0.00313025 0.00464766
10 25 -0.00364747 0.00545288
10 26 -0.00418894 0.00633148
10 27 -0.00469853 0.00727173
10 28 -0.00516212 0.00820494
10 29 -0.00562115 0.00915719
10 30 -0.00605873 0.0101757
10 31 -0.00641836 0.0111921
10 32 -0.00671271 0.0121511
10 33 -0.00698295 0.0131283
10 34 -0.00718015 0.0141239
10 35 -0.00727153 0.0150303
10 36 -0.00729878 0.015857
10 37 -0.00728913 0.0167025
10 38 -0.00717285 0.0174881
10 39 -0.00696729 0.0181293
10 40 -0.0067317 0.0187288
10 41 -0.00645614 0.0193388
10 42 -0.00607409 0.0198106
10 43 -0.00566874 0.0201679
10 44 -0.00527304 0.0205588
10 45 -0.0048275 0.0209115
10 46 -0.00431385 0.021094
10 47 -0.00386206 0.0212795
10 48 -0.00341737 0.0215297
10 49 -0.00290618 0.0216555
10 50 -0.00240552 0.021679
10 51 -0.00201682 0.0218371
10 52 -0.00156636 0.0219773
10 53 -0.00106577 0.0219487
10 54 -0.00067581 0.0219856
10 55 -0.000351764 0.0221747
10 56 0.000127541 0.0221824
10 57 0.000556541 0.022119
10 58 0.000823053 0.0222738
10 59 0.00117972 0.0224068
10 60 0.00169792 0.0222657
10 61 0.00199554 0.022291
10 62 0.0022209 0.0224941
10 63 0.00270576 0.0223975
10 64 0.00317501 0.0221622
10 65 0.00330922 0.0223029
10 66 0.00362137 0.0222979
10 67 0.0041921 0.021856
10 68 0.00443016 0.021641
10 69 0.00444195 0.0217221
10 70 0.00489956 0.0211893
10 71 0.00531174 0.0204844
10 72 0.0051545 0.0203517
10 73 0.00516117 0.0199895
10 74 0.00564123 0.0188088
10 75 0.00554059 0.018175
10 76 0.00501613 0.0179834
10 77 0.00516305 0.0168116
10 78 0.00535858 0.0153957
10 79 0.00452929 0.0152552
10 80 0.00399593 0.0145885
10 81 0.00436206 0.0127368
10 82 0.00386441 0.0120597
10 83 0.00245604 0.0123775
10 84 0.00257538 0.0107619
10 85 0.00286966 0.00924633
10 86 0.00112137 0.0100143
10 87 -7.9405e-005 0.00981972
10 88 0.0012504 0.00751155
10 89 -7.18866e-005 0.00781776
10 90 -0.00307106 0.00904602
10 91 -0.00216772 0.00729792
10 92 -0.00112468 0.00606558
10 93 -0.00617129 0.00793722
10 94 -0.00729879 0.00677992
10 95 -0.00271709 0.00552235
10 96 -0.00639523 0.00712055
10 97 -0.002627 0.00602554
10 98 0.0280189 -0.000589112
10 99 0.0987382 -0.000955738
10 100 0.1 0
11 0 0 0
11 1 1.41133e-005 1.38642e-006
11 2 0.000230898 7.1322e-006
11 3 0.000510871 -4.07731e-005
11 4 0.000748554 -8.66875e-005
11 5 0.000960531 -0.000150388
11 6 0.00111489 -0.000221335
11 7 0.00123146 -0.000279843
11 8 0.00128515 -0.000317288
11 9 0.00130678 -0.00035345
11 10 0.00128305 -0.00034687
11 11 0.00121635 -0.000280189
11 12 0.00109134 -0.000173246
11 13 0.000929396 -2.90157e-005
11 14 0.000705305 0.000204558
11 15 0.000423553 0.000511599
11 16 8.55865e-005 0.000858434
11 17 -0.000292183 0.00127509
11 18 -0.000732461 0.00179627
11 19 -0.00121255 0.00236611
11 20 -0.00172165 0.00297189
11 21 -0.00225542 0.003672
11 22 -0.0028264 0.00445442
11 23 -0.00340015 0.00524928
11 24 -0.00396965 0.00609285
11 25 -0.00454533 0.00703611
11 26 -0.00512247 0.00800821
11 27 -0.00565844 0.00896657
11 28 -0.00615901 0.00998606
11 29 -0.00664493 0.0110631
11 30 -0.00707905 0.0120907
11 31 -0.00742518 0.0130867