Title= "LBM Lid Driven Flow"
VARIABLES="X","Y","U","V"
ZONE T="BOX",I=101,J=101,F=POINT
0 0 0 0
0 1 0 0
0 2 0 0
0 3 0 0
0 4 0 0
0 5 0 0
0 6 0 0
0 7 0 0
0 8 0 0
0 9 0 0
0 10 0 0
0 11 0 0
0 12 0 0
0 13 0 0
0 14 0 0
0 15 0 0
0 16 0 0
0 17 0 0
0 18 0 0
0 19 0 0
0 20 0 0
0 21 0 0
0 22 0 0
0 23 0 0
0 24 0 0
0 25 0 0
0 26 0 0
0 27 0 0
0 28 0 0
0 29 0 0
0 30 0 0
0 31 0 0
0 32 0 0
0 33 0 0
0 34 0 0
0 35 0 0
0 36 0 0
0 37 0 0
0 38 0 0
0 39 0 0
0 40 0 0
0 41 0 0
0 42 0 0
0 43 0 0
0 44 0 0
0 45 0 0
0 46 0 0
0 47 0 0
0 48 0 0
0 49 0 0
0 50 0 0
0 51 0 0
0 52 0 0
0 53 0 0
0 54 0 0
0 55 0 0
0 56 0 0
0 57 0 0
0 58 0 0
0 59 0 0
0 60 0 0
0 61 0 0
0 62 0 0
0 63 0 0
0 64 0 0
0 65 0 0
0 66 0 0
0 67 0 0
0 68 0 0
0 69 0 0
0 70 0 0
0 71 0 0
0 72 0 0
0 73 0 0
0 74 0 0
0 75 0 0
0 76 0 0
0 77 0 0
0 78 0 0
0 79 0 0
0 80 0 0
0 81 0 0
0 82 0 0
0 83 0 0
0 84 0 0
0 85 0 0
0 86 0 0
0 87 0 0
0 88 0 0
0 89 0 0
0 90 0 0
0 91 0 0
0 92 0 0
0 93 0 0
0 94 0 0
0 95 0 0
0 96 0 0
0 97 0 0
0 98 0 0
0 99 0 0
0 100 0.1 0
1 0 0 0
1 1 -2.78002e-006 7.38277e-007
1 2 1.75592e-006 1.50363e-005
1 3 -1.11804e-006 4.50307e-006
1 4 1.08349e-006 4.77167e-006
1 5 -7.95874e-007 -8.36686e-008
1 6 1.53539e-006 -4.98812e-006
1 7 -9.57963e-007 1.76236e-006
1 8 2.87444e-006 2.79216e-006
1 9 5.71605e-007 -1.11636e-005
1 10 2.65551e-006 -6.18257e-006
1 11 1.35089e-006 4.92315e-006
1 12 5.48233e-006 -6.5426e-006
1 13 2.03842e-006 -1.53723e-005
1 14 5.23783e-006 3.75185e-006
1 15 4.75273e-006 4.45263e-006
1 16 7.96882e-006 -1.5214e-005
1 17 3.86478e-006 -4.4258e-006
1 18 9.29406e-006 1.66339e-005
1 19 7.87867e-006 -2.2849e-006
1 20 9.90432e-006 -1.13332e-005
1 21 6.56631e-006 2.03518e-005
1 22 1.38805e-005 2.20538e-005
1 23 9.3823e-006 -6.58656e-006
1 24 1.18065e-005 1.4002e-005
1 25 1.00556e-005 4.62409e-005
1 26 1.72149e-005 1.73589e-005
1 27 8.95369e-006 6.68169e-006
1 28 1.45623e-005 5.50043e-005
1 29 1.30037e-005 5.71422e-005
1 30 1.79242e-005 1.29859e-005
1 31 7.6866e-006 4.5049e-005
1 32 1.83345e-005 9.06373e-005
1 33 1.34718e-005 4.75479e-005
1 34 1.63502e-005 2.60164e-005
1 35 7.22998e-006 9.78486e-005
1 36 2.20734e-005 9.80681e-005
1 37 1.03762e-005 2.97717e-005
1 38 1.46299e-005 6.66199e-005
1 39 8.47409e-006 0.000138752
1 40 2.40953e-005 6.95226e-005
1 41 4.4809e-006 2.90254e-005
1 42 1.55978e-005 0.000127221
1 43 1.07312e-005 0.000138666
1 44 2.31068e-005 2.24577e-005
1 45 -1.5266e-006 6.93663e-005
1 46 2.12903e-005 0.000177993
1 47 1.15371e-005 8.40903e-005
1 48 1.9459e-005 -1.00502e-006
1 49 -3.66884e-006 0.000151767
1 50 3.11726e-005 0.000174434
1 51 7.68055e-006 -1.65587e-006
1 52 1.65887e-005 4.53076e-005
1 53 1.23236e-006 0.000234323
1 54 4.11578e-005 8.76063e-005
1 55 -1.78867e-006 -5.23171e-005
1 56 2.08474e-005 0.000169801
1 57 1.22674e-005 0.000241715
1 58 4.57192e-005 -5.49239e-005
1 59 -1.24961e-005 9.20318e-006
1 60 3.81417e-005 0.000309394
1 61 2.29034e-005 0.000115956
1 62 4.29707e-005 -0.000155212
1 63 -1.49619e-005 0.00020764
1 64 6.89953e-005 0.000341862
1 65 2.38477e-005 -0.000118486
1 66 3.92966e-005 -8.48417e-005
1 67 9.92015e-007 0.000459111
1 68 0.000105523 0.000154236
1 69 9.83333e-006 -0.00031923
1 70 5.03393e-005 0.000225506
1 71 3.92091e-005 0.000564705
1 72 0.000133422 -0.000254701
1 73 -1.2567e-005 -0.000256626
1 74 9.71602e-005 0.000676677
1 75 9.01579e-005 0.00028587
1 76 0.000140827 -0.000681201
1 77 -1.94759e-005 0.000264542
1 78 0.000197073 0.000927814
1 79 0.000128681 -0.000490497
1 80 0.000133042 -0.000693803
1 81 3.16571e-005 0.00118094
1 82 0.000348818 0.000433467
1 83 0.000124166 -0.0015246
1 84 0.000150598 0.000234674
1 85 0.000199392 0.00185506
1 86 0.000515883 -0.00134812
1 87 6.91615e-005 -0.00196746
1 88 0.000294784 0.00232604
1 89 0.000551068 0.000698038
1 90 0.000625258 -0.00459199
1 91 2.0054e-005 -2.43708e-005
1 92 0.000760178 0.00501784
1 93 0.00119616 -0.00534284
1 94 0.000761643 -0.0106634
1 95 2.27392e-005 0.00694425
1 96 0.00245744 0.0032392
1 97 0.00230091 -0.0237522
1 98 -0.00306233 0.0333263
1 99 0.00727384 0.0123424
1 100 0.1 0
2 0 0 0
2 1 -2.71369e-005 -3.57495e-006
2 2 1.17482e-005 -9.99666e-006
2 3 -1.08712e-005 -7.4351e-006
2 4 1.3247e-005 -2.1342e-005
2 5 -1.40756e-005 -3.05994e-005
2 6 1.56711e-005 -3.0456e-005
2 7 -1.72475e-005 -4.6072e-005
2 8 1.47465e-005 -5.71786e-005
2 9 -1.47893e-005 -4.98255e-005
2 10 9.69206e-006 -4.66941e-005
2 11 -1.99694e-005 -5.72088e-005
2 12 1.29733e-005 -4.23943e-005
2 13 -2.40823e-005 -1.56829e-005
2 14 5.20055e-006 -8.36611e-006
2 15 -2.35102e-005 4.35621e-006
2 16 6.35783e-006 5.36429e-005
2 17 -3.49118e-005 8.98166e-005
2 18 5.36391e-006 0.000107487
2 19 -3.23288e-005 0.000159932
2 20 -1.77992e-006 0.000234113
2 21 -4.20727e-005 0.000268703
2 22 6.97113e-006 0.000313582
2 23 -4.73713e-005 0.000407888
2 24 -3.79774e-006 0.000481826
2 25 -4.53671e-005 0.000516535
2 26 6.50454e-006 0.000604757
2 27 -6.25095e-005 0.000716658
2 28 5.90808e-006 0.000766093
2 29 -4.94653e-005 0.000818396
2 30 5.88362e-006 0.000944792
2 31 -6.96702e-005 0.00103091
2 32 2.57452e-005 0.00105319
2 33 -5.88188e-005 0.00114205
2 34 1.18272e-005 0.00127007
2 35 -6.64265e-005 0.00129482
2 36 4.87485e-005 0.0013155
2 37 -7.41114e-005 0.0014394
2 38 3.04904e-005 0.00151388
2 39 -5.81243e-005 0.00147783
2 40 6.7553e-005 0.00153586
2 41 -9.27261e-005 0.00165862
2 42 6.41422e-005 0.00163675
2 43 -5.50972e-005 0.00158778
2 44 7.77961e-005 0.00170361
2 45 -0.000109481 0.00175957
2 46 0.000111058 0.00164768
2 47 -7.03697e-005 0.00166119
2 48 8.17296e-005 0.00180236
2 49 -0.000116339 0.00173044
2 50 0.000162626 0.00160439
2 51 -0.000116055 0.00173009
2 52 9.44438e-005 0.00180386
2 53 -0.000109071 0.00160403
2 54 0.0001996 0.00158492
2 55 -0.000191537 0.00178601
2 56 0.000142176 0.00168627
2 57 -0.000101829 0.00146085
2 58 0.000200938 0.00163863
2 59 -0.000271904 0.00177385
2 60 0.000243856 0.00147211
2 61 -0.000133515 0.00140411
2 62 0.00016689 0.00174414
2 63 -0.000313888 0.00163083
2 64 0.000386448 0.00125586
2 65 -0.000253186 0.00150807
2 66 0.000141265 0.00180396
2 67 -0.000283079 0.00135376
2 68 0.000509754 0.00119169
2 69 -0.000484306 0.00175963
2 70 0.00021567 0.00169307
2 71 -0.00019571 0.0010578
2 72 0.000513218 0.00143113
2 73 -0.000774484 0.00202724
2 74 0.000499879 0.00135951
2 75 -0.000166966 0.000990057
2 76 0.000308283 0.00202347
2 77 -0.000954899 0.00209749
2 78 0.00104275 0.0009496
2 79 -0.000443059 0.00147747
2 80 -5.52427e-005 0.00281634
2 81 -0.000753928 0.00180963
2 82 0.00168267 0.000916973
2 83 -0.00135249 0.00281634
2 84 -0.000200519 0.00344542
2 85 0.000101741 0.00130418
2 86 0.00177958 0.00210783
2 87 -0.00307729 0.00517814
2 88 0.000771331 0.00361303
2 89 0.00170153 0.00143244
2 90 -0.000240436 0.0059108
2 91 -0.00539328 0.00887865
2 92 0.00449815 0.0040663
2 93 0.00469477 0.00407243
2 94 -0.00759908 0.0153591
2 95 -0.00960572 0.0184314
2 96 0.0162169 0.0140007
2 97 -0.0171845 0.0403151
2 98 -0.0257163 0.0348737
2 99 0.0902539 0.000740185
2 100 0.1 0
3 0 0 0
3 1 -8.5876e-006 -1.41563e-006
3 2 1.66137e-006 -1.75895e-006
3 3 7.56379e-006 -1.55527e-005
3 4 1.90142e-005 -2.77505e-005
3 5 1.86164e-006 -3.97819e-005
3 6 1.76194e-005 -5.18806e-005
3 7 9.1497e-006 -6.91755e-005
3 8 7.87766e-006 -7.55994e-005
3 9 -9.2111e-006 -7.56796e-005
3 10 5.02247e-006 -7.73491e-005
3 11 -1.63593e-005 -7.26795e-005
3 12 -2.29579e-005 -4.73526e-005
3 13 -3.33577e-005 -2.35277e-005
3 14 -2.34174e-005 1.25864e-006
3 15 -5.72671e-005 4.74068e-005
3 16 -5.59695e-005 0.000106912
3 17 -6.06849e-005 0.000155489
3 18 -6.25307e-005 0.000220751
3 19 -0.000100845 0.000311281
3 20 -8.11721e-005 0.000394712
3 21 -9.19862e-005 0.000473559
3 22 -0.000105722 0.000586722
3 23 -0.000132243 0.000706287
3 24 -9.51196e-005 0.000803821
3 25 -0.000126126 0.000920848
3 26 -0.00013639 0.00106953
3 27 -0.000138933 0.00119151
3 28 -9.92356e-005 0.00130097
3 29 -0.000153458 0.00145271
3 30 -0.00013557 0.00160282
3 31 -0.000120062 0.00170538
3 32 -9.61991e-005 0.00182925
3 33 -0.000159124 0.00199117
3 34 -9.60259e-005 0.00210266
3 35 -8.82304e-005 0.00218183
3 36 -8.64083e-005 0.00231755
3 37 -0.000133016 0.00244899
3 38 -2.9183e-005 0.00249897
3 39 -6.26312e-005 0.00256961
3 40 -6.70204e-005 0.00270117
3 41 -7.65515e-005 0.00276267
3 42 3.88734e-005 0.00276111
3 43 -5.85227e-005 0.0028452
3 44 -3.03829e-005 0.00294016
3 45 -4.39056e-006 0.00291405
3 46 7.7504e-005 0.00290452
3 47 -7.39801e-005 0.00300924
3 48 3.38174e-005 0.00302363
3 49 5.41303e-005 0.00293351
3 50 6.89321e-005 0.00297357
3 51 -8.29575e-005 0.00306593
3 52 0.000124142 0.0029674
3 53 6.16305e-005 0.00288749
3 54 2.78509e-005 0.00300418
3 55 -5.09159e-005 0.00300705
3 56 0.000212018 0.00281897
3 57 -4.72884e-006 0.00284925
3 58 3.39222e-006 0.0029893
3 59 3.17595e-005 0.00282762
3 60 0.00024749 0.00266178
3 61 -0.000127317 0.00285698
3 62 5.31544e-005 0.00287973
3 63 0.000125977 0.00256687
3 64 0.000189275 0.00259581
3 65 -0.000240324 0.00287946
3 66 0.000203501 0.00263021
3 67 0.000148926 0.00233883
3 68 4.25603e-005 0.00268547
3 69 -0.000251812 0.00281526
3 70 0.000418244 0.00227152
3 71 8.022e-006 0.00231755
3 72 -0.000116327 0.00289017
3 73 -9.2968e-005 0.00254668
3 74 0.000589868 0.00197603
3 75 -0.000342448 0.0026559
3 76 -0.000147451 0.00302007
3 77 0.000220832 0.0020567
3 78 0.000554184 0.00207596
3 79 -0.000832559 0.00334071
3 80 0.000110805 0.00277999
3 81 0.000529325 0.00159883
3 82 0.000119183 0.00298754
3 83 -0.00123197 0.00403506
3 84 0.000797725 0.00196213
3 85 0.000452775 0.00189381
3 86 -0.000918534 0.00498194
3 87 -0.00120871 0.00397822
3 88 0.00203951 0.000790184
3 89 -0.000684731 0.00431758
3 90 -0.00291136 0.00771024
3 91 -0.000864989 0.00186354
3 92 0.00412369 0.000523937
3 93 -0.00302306 0.0120529
3 94 -0.00960337 0.0106911
3 95 -0.00365838 -0.00305534
3 96 -0.0048827 0.0157261
3 97 -0.0340478 0.0278213
3 98 0.0101158 0.0125455
3 99 0.100758 -8.09109e-005
3 100 0.1 0
4 0 0 0
4 1 -2.92889e-006 -1.89049e-006
4 2 1.9065e-006 -1.90219e-005
4 3 1.32443e-005 -2.48078e-005
4 4 1.80634e-005 -2.45107e-005
4 5 2.20602e-005 -4.48174e-005
4 6 1.75215e-005 -6.74489e-005
4 7 1.79724e-005 -7.06114e-005
4 8 3.27512e-006 -7.1452e-005
4 9 -4.03401e-006 -8.79132e-005
4 10 -1.84081e-005 -7.98944e-005
4 11 -3.09994e-005 -4.92617e-005
4 12 -5.34511e-005 -3.25803e-005
4 13 -6.22025e-005 -1.3551e-005
4 14 -8.44457e-005 4.9655e-005
4 15 -0.000101677 0.000113793
4 16 -0.000121639 0.000156825
4 17 -0.000132198 0.000235157
4 18 -0.000160636 0.00035116
4 19 -0.000172763 0.0004355
4 20 -0.000189497 0.000520716
4 21 -0.000204102 0.000667473
4 22 -0.000229981 0.00081072
4 23 -0.00023016 0.0009095
4 24 -0.000247808 0.00105552
4 25 -0.00026067 0.00125034
4 26 -0.000272576 0.0013864
4 27 -0.000261752 0.00151015
4 28 -0.000281916 0.00171645
4 29 -0.000280599 0.00190906
4 30 -0.000274818 0.0020183
4 31 -0.000259431 0.00218411
4 32 -0.000277711 0.00241376
4 33 -0.000252725 0.00254894
4 34 -0.000236942 0.00264206
4 35 -0.000223112 0.00285112
4 36 -0.000232531 0.00303763
4 37 -0.000184056 0.00309086
4 38 -0.000173456 0.00320246
4 39 -0.000163136 0.00342186
4 40 -0.000158204 0.0035001
4 41 -9.63619e-005 0.00350078
4 42 -0.000107234 0.00366187
4 43 -9.50954e-005 0.00382279
4 44 -7.36981e-005 0.00377068
4 45 -1.6536e-005 0.00379599
4 46 -5.86561e-005 0.00399426
4 47 -2.86397e-005 0.00401645
4 48 3.25897e-006 0.00388903
4 49 3.23179e-005 0.00401707
4 50 -3.27048e-005 0.00416965
4 51 3.82357e-005 0.00401768
4 52 5.54532e-005 0.00394249
4 53 3.99524e-005 0.00417715
4 54 -1.28077e-005 0.00415624
4 55 0.000107556 0.00390196
4 56 6.30987e-005 0.00401076
4 57 1.9194e-005 0.00423105
4 58 2.64453e-005 0.00395705
4 59 0.000161772 0.00378983
4 60 1.28926e-005 0.00410631
4 61 7.67077e-006 0.00410346
4 62 9.20356e-005 0.00365682
4 63 0.000159493 0.00379667
4 64 -8.17481e-005 0.00415133
4 65 5.2574e-005 0.00376911
4 66 0.000149041 0.00343027
4 67 5.78731e-005 0.00395954
4 68 -0.000165499 0.00401807
4 69 0.000177656 0.00333523
4 70 0.00011585 0.00348089
4 71 -0.000142863 0.00418092
4 72 -0.000150722 0.00363205
4 73 0.000335532 0.00306879
4 74 -0.000107821 0.00392107
4 75 -0.000348882 0.00424795
4 76 3.12244e-005 0.00310466
4 77 0.000357855 0.00333311
4 78 -0.000566633 0.00465009
4 79 -0.000349621 0.00397197
4 80 0.000327476 0.00283955
4 81 -5.99615e-005 0.00443418
4 82 -0.00114008 0.00532735
4 83 0.000119835 0.00343813
4 84 0.00042282 0.00356481
4 85 -0.00126226 0.00640627
4 86 -0.0014303 0.00552277
4 87 0.00112917 0.00327159
4 88 -0.000400234 0.00624127
4 89 -0.00329066 0.00881077
4 90 -0.000644556 0.00504552
4 91 0.00156338 0.00484153
4 92 -0.00365433 0.0118567
4 93 -0.00476505 0.010816
4 94 -0.000225447 0.00458494
4 95 -0.00899699 0.0135948
4 96 -0.0148164 0.0135468
4 97 -0.00746823 -0.00823991
4 98 0.0114625 -0.0171948
4 99 0.0929293 -0.00110091
4 100 0.1 0
5 0 0 0
5 1 -1.6065e-006 -7.99049e-007
5 2 1.6016e-005 -2.85119e-006
5 3 2.13865e-005 -2.06441e-005
5 4 3.14869e-005 -3.88434e-005
5 5 4.37714e-005 -5.83739e-005
5 6 3.29295e-005 -7.21625e-005
5 7 2.14894e-005 -8.61452e-005
5 8 1.36454e-005 -9.64177e-005
5 9 -1.09162e-006 -9.87619e-005
5 10 -3.72592e-005 -8.56993e-005
5 11 -5.46465e-005 -7.00204e-005
5 12 -7.44299e-005 -4.38219e-005
5 13 -0.000109139 1.38762e-006
5 14 -0.000148382 5.8882e-005
5 15 -0.000159632 0.000117027
5 16 -0.000192897 0.000196727
5 17 -0.000235891 0.000296806
5 18 -0.000261767 0.000396299
5 19 -0.000271461 0.000503884
5 20 -0.000319771 0.000642944
5 21 -0.000351679 0.000787385
5 22 -0.00035867 0.000923155
5 23 -0.000376571 0.00108553
5 24 -0.000426589 0.00127205
5 25 -0.000427292 0.0014398
5 26 -0.000423489 0.0016092
5 27 -0.000450867 0.00181861
5 28 -0.000477571 0.00202063
5 29 -0.000441646 0.00219198
5 30 -0.000443027 0.00239078
5 31 -0.000466422 0.00261727
5 32 -0.000449999 0.00279616
5 33 -0.000393584 0.00296222
5 34 -0.000411949 0.00317535
5 35 -0.000409168 0.00337371
5 36 -0.000350819 0.00350538
5 37 -0.000303823 0.00366769
5 38 -0.000337541 0.00386549
5 39 -0.000289746 0.00399631
5 40 -0.000215372 0.00408451
5 41 -0.000205853 0.00424562
5 42 -0.000235857 0.00439053
5 43 -0.000137949 0.0044413
5 44 -9.2569e-005 0.00451389
5 45 -0.000127225 0.00466541
5 46 -0.000118641 0.0047246
5 47 7.44891e-006 0.00471896
5 48 -2.33515e-005 0.00480952
5 49 -6.7162e-005 0.00492201
5 50 8.90334e-006 0.00488194
5 51 0.000105132 0.00487528
5 52 -1.51179e-005 0.00499448
5 53 5.04109e-006 0.00501735
5 54 0.000129745 0.00490321
5 55 0.000124489 0.00496105
5 56 -3.02493e-005 0.00506739
5 57 0.000117054 0.00495656
5 58 0.000200741 0.0048474
5 59 6.76166e-005 0.00500033
5 60 -7.26339e-006 0.00499877
5 61 0.000252484 0.00477206
5 62 0.000168923 0.00478254
5 63 -1.66114e-005 0.00497421
5 64 9.54259e-005 0.00476733
5 65 0.000338601 0.00454977
5 66 1.46626e-005 0.00476096
5 67 -4.24226e-005 0.0048308
5 68 0.000255704 0.00441186
5 69 0.000275648 0.00442164
5 70 -0.00020536 0.00477958
5 71 7.00742e-005 0.00452303
5 72 0.000361975 0.00406771
5 73 1.44297e-006 0.00451025
5 74 -0.000352239 0.00475078
5 75 0.000323609 0.00407434
5 76 0.000229407 0.00397105
5 77 -0.000436264 0.00483759
5 78 -0.000262348 0.00452193
5 79 0.000566215 0.00366372
5 80 -0.000318742 0.00440785
5 81 -0.000854223 0.00523278
5 82 0.00013245 0.00396635
5 83 0.000438386 0.00369954
5 84 -0.00131475 0.00556001
5 85 -0.000990093 0.00529221
5 86 0.000631565 0.00317868
5 87 -0.000606234 0.00485647
5 88 -0.00259084 0.00719769
5 89 -0.000654168 0.00451615
5 90 0.000507656 0.00313992
5 91 -0.00317464 0.00801975
5 92 -0.00480803 0.00775772
5 93 -1.91056e-005 0.00348528
5 94 -0.00341043 0.0088435
5 95 -0.0134508 0.00791451
5 96 0.00141701 -0.00330007
5 97 -0.00647419 0.000236443
5 98 0.00427515 0.0077437
5 99 0.0878293 0.00116939
5 100 0.1 0
6 0 0 0
6 1 -4.75797e-006 -1.87935e-006
6 2 2.09547e-005 -4.03607e-006
6 3 3.5668e-005 -1.90844e-005
6 4 4.81831e-005 -4.31828e-005
6 5 4.73656e-005 -5.65117e-005
6 6 4.64322e-005 -6.35319e-005
6 7 3.13046e-005 -8.74147e-005
6 8 1.15627e-005 -9.63556e-005
6 9 -1.81853e-005 -8.09896e-005
6 10 -4.73174e-005 -6.97764e-005
6 11 -8.35659e-005 -6.27624e-005
6 12 -0.000123024 -1.60677e-005
6 13 -0.000164598 4.43676e-005
6 14 -0.000200954 8.8915e-005
6 15 -0.000246198 0.000156981
6 16 -0.000291606 0.000269892
6 17 -0.000330752 0.000367257
6 18 -0.00036821 0.000458597
6 19 -0.000418491 0.000603591
6 20 -0.000456649 0.000765957
6 21 -0.00048667 0.000890988
6 22 -0.000524575 0.00104724
6 23 -0.000568432 0.00126022
6 24 -0.000584765 0.00143993
6 25 -0.000605382 0.00159623
6 26 -0.000637022 0.00182362
6 27 -0.000655909 0.00206385
6 28 -0.00064472 0.00223327
6 29 -0.000658663 0.00243313
6 30 -0.000669375 0.0027054
6 31 -0.000652037 0.0029157
6 32 -0.00062124 0.00307001
6 33 -0.000628727 0.00331589
6 34 -0.000605694 0.00357311
6 35 -0.000558649 0.00371279
6 36 -0.000523765 0.00387171
6 37 -0.000522339 0.00413862
6 38 -0.000464089 0.00431199
6 39 -0.000409175 0.00438476
6 40 -0.000384569 0.00457546
6 41 -0.000370312 0.00480725
6 42 -0.000287912 0.00485614
6 43 -0.00025256 0.00491593
6 44 -0.000242503 0.00514283
6 45 -0.000210056 0.00526568
6 46 -0.000123603 0.00521203
6 47 -0.000129233 0.00533549
6 48 -0.00012122 0.00554794
6 49 -6.64516e-005 0.00550837
6 50 -2.29194e-006 0.00544763
6 51 -5.33509e-005 0.00567118
6 52 -1.81217e-005 0.0057612
6 53 5.08687e-005 0.0055829
6 54 6.36386e-005 0.00564352
6 55 -1.01019e-005 0.00589787
6 56 8.38522e-005 0.0057613
6 57 0.000131499 0.00558001
6 58 7.56382e-005 0.0058284
6 59 3.11841e-005 0.00593611
6 60 0.000188224 0.00558132
6 61 0.0001509 0.00560164
6 62 4.85973e-005 0.00594388
6 63 9.66869e-005 0.00572194
6 64 0.0002643 0.00534697
6 65 8.03245e-005 0.00570571
6 66 1.75124e-005 0.00587048
6 67 0.000188615 0.00530547
6 68 0.000247907 0.00525176
6 69 -8.18716e-005 0.00584517
6 70 3.67471e-005 0.00551581
6 71 0.00026299 0.00490564
6 72 6.38282e-005 0.00544951
6 73 -0.00027786 0.00585397
6 74 0.000151069 0.00494119
6 75 0.000203632 0.0048662
6 76 -0.00032661 0.00591177
6 77 -0.000381913 0.00554484
6 78 0.000326036 0.00447079
6 79 -0.000187012 0.00549435
6 80 -0.000847228 0.00635366
6 81 -0.000245349 0.00492728
6 82 0.000332489 0.00469893
6 83 -0.00113189 0.00680605
6 84 -0.00120803 0.00634026
6 85 0.000154468 0.00447128
6 86 -0.000428871 0.006309
6 87 -0.00268174 0.00830379
6 88 -0.000837153 0.00567765
6 89 0.000192119 0.00530838
6 90 -0.00322171 0.00958232
6 91 -0.00397574 0.0092377
6 92 0.000307436 0.00531614
6 93 -0.00413351 0.00901097
6 94 -0.00813516 0.012456
6 95 -0.00290792 0.00783554
6 96 0.00340852 0.00929551
6 97 -0.0127847 0.012241
6 98 0.0110972 0.00186216
6 99 0.0941233 -0.000563653
6 100 0.1 0
7 0 0 0
7 1 -1.22853e-006 -9.82948e-007
7 2 2.70519e-005 -6.96442e-006
7 3 5.53181e-005 -2.45233e-005
7 4 6.87679e-005 -3.77614e-005
7 5 6.01667e-005 -5.95432e-005
7 6 6.22734e-005 -7.92154e-005
7 7 4.53653e-005 -9.02009e-005
7 8 1.02704e-005 -9.06302e-005
7 9 -2.95952e-005 -9.32138e-005
7 10 -5.91465e-005 -8.05398e-005
7 11 -0.000114167 -4.84434e-005
7 12 -0.0001732 -7.98325e-006
7 13 -0.000218208 3.52511e-005
7 14 -0.000265602 0.000107196
7 15 -0.000338699 0.000197013
7 16 -0.000392063 0.000285182
7 17 -0.000434621 0.000388552
7 18 -0.000497395 0.000528564
7 19 -0.000567752 0.000669495
7 20 -0.000601101 0.000806143
7 21 -0.000647479 0.000978883
7 22 -0.000713254 0.00117685
7 23 -0.000756307 0.00135284
7 24 -0.000768298 0.00154144
7 25 -0.000818999 0.00177759
7 26 -0.000860069 0.00200277
7 27 -0.000860558 0.00219923
7 28 -0.00085904 0.00243831
7 29 -0.000900918 0.00270481
7 30 -0.000890266 0.00291806
7 31 -0.000854271 0.00312841
7 32 -0.000848321 0.00339798
7 33 -0.000860836 0.00364144
7 34 -0.000791701 0.00381738
7 35 -0.000745188 0.00403986
7 36 -0.000737795 0.00429758
7 37 -0.000706389 0.00447063
7 38 -0.000599186 0.00461292
7 39 -0.000574785 0.00484004
7 40 -0.000559533 0.00503408
7 41 -0.000483522 0.0051245
7 42 -0.000378668 0.00526062
7 43 -0.000399139 0.00546896
7 44 -0.000356015 0.00556253
7 45 -0.000252186 0.00560355
7 46 -0.000197602 0.0057601
7 47 -0.00025412 0.00590963
7 48 -0.000153528 0.0059021
7 49 -6.58968e-005 0.00595543
7 50 -9.06895e-005 0.00612839
7 51 -0.000129105 0.00617351
7 52 3.6245e-005 0.00610853
7 53 3.9405e-005 0.00622823
7 54 -3.66809e-005 0.00636383
7 55 1.40665e-005 0.00627927
7 56 0.000189142 0.00623794
7 57 5.71887e-005 0.00642688
7 58 2.6427e-005 0.0064331
7 59 0.00018487 0.00625338
7 60 0.000257243 0.00632339
7 61 1.92071e-005 0.00650287
7 62 0.000151721 0.00630689
7 63 0.000326153 0.00615004
7 64 0.000197776 0.00636578
7 65 -7.15756e-006 0.00638973
7 66 0.000334934 0.00601876
7 67 0.00032994 0.00605346
7 68 2.71289e-005 0.00633103
7 69 5.62106e-005 0.00606128
7 70 0.000485078 0.00569239
7 71 0.000103359 0.00603913
7 72 -0.000145357 0.00615508
7 73 0.000233181 0.00557944
7 74 0.000427648 0.0055128
7 75 -0.00034138 0.00611142
7 76 -0.000154921 0.00577334
7 77 0.000399787 0.00511861
7 78 -2.49677e-005 0.00565316
7 79 -0.000828483 0.00615925
7 80 9.14571e-005 0.00518414
7 81 0.000224083 0.00496772
7 82 -0.000924971 0.00616743
7 83 -0.0010693 0.00595945
7 84 0.000414816 0.00454638
7 85 -0.00075812 0.00551333
7 86 -0.00206483 0.00683448
7 87 -0.000923819 0.00522552
7 88 0.000130012 0.00441106
7 89 -0.0028448 0.00712956
7 90 -0.00330823 0.00675479
7 91 -0.00105178 0.00388357
7 92 -0.00207924 0.0064994
7 93 -0.00759371 0.00883113
7 94 -0.00318988 0.00406319
7 95 -0.00442997 0.00418283
7 96 -0.0085718 0.011135
7 97 -0.00746043 0.0145303
7 98 0.0215516 0.00848847
7 99 0.0962591 -0.00018689
7 100 0.1 0
8 0 0 0
8 1 -2.91474e-006 -1.41703e-006
8 2 3.80687e-005 -1.24897e-005
8 3 6.18707e-005 -2.54064e-005
8 4 7.80995e-005 -3.23313e-005
8 5 8.19367e-005 -5.62909e-005
8 6 7.0231e-005 -7.57772e-005
8 7 4.1644e-005 -7.7851e-005
8 8 1.05977e-005 -7.6508e-005
8 9 -3.54287e-005 -8.36865e-005
8 10 -9.43378e-005 -6.17951e-005
8 11 -0.000154846 -1.98285e-005
8 12 -0.000212243 1.53753e-005
8 13 -0.000283556 6.22173e-005
8 14 -0.000358937 0.000151761
8 15 -0.000422608 0.000241994
8 16 -0.000488704 0.000325802
8 17 -0.000570983 0.00044912
8 18 -0.000641077 0.000602923
8 19 -0.000696918 0.000734656
8 20 -0.000768414 0.00088418
8 21 -0.000845557 0.00108679
8 22 -0.000891146 0.00128207
8 23 -0.000937026 0.00145518
8 24 -0.00100333 0.00168111
8 25 -0.0010487 0.00193629
8 26 -0.00105844 0.00214488
8 27 -0.00109366 0.00236539
8 28 -0.00113096 0.00265093
8 29 -0.00112326 0.0029071
8 30 -0.00110195 0.00311128
8 31 -0.00112101 0.00337713
8 32 -0.00110571 0.00367036
8 33 -0.00104797 0.0038772
8 34 -0.00101188 0.0040775
8 35 -0.00100635 0.00436437
8 36 -0.000933824 0.00459789
8 37 -0.000853813 0.00473683
8 38 -0.000820686 0.00494572
8 39 -0.000785567 0.00520695
8 40 -0.000674364 0.00533261
8 41 -0.000611289 0.00543076
8 42 -0.00058941 0.00565646
8 43 -0.000523873 0.00583496
8 44 -0.000408862 0.00585381
8 45 -0.000393698 0.00597273
8 46 -0.0003715 0.00619503
8 47 -0.000280445 0.00624428
8 48 -0.000200912 0.00622073
8 49 -0.000236645 0.00641338
8 50 -0.00018393 0.00656506
8 51 -8.53619e-005 0.00648482
8 52 -7.06253e-005 0.00652612
8 53 -0.000123465 0.00677334
8 54 -1.1956e-005 0.00676243
8 55 5.45289e-005 0.0066339
8 56 9.71786e-007 0.00682082
8 57 -1.03667e-005 0.00699913
8 58 0.000153831 0.00678765
8 59 0.000132428 0.0067641
8 60 4.68293e-005 0.00706128
8 61 0.000128668 0.00699936
8 62 0.000284207 0.00669111
8 63 0.000132582 0.00691141
8 64 9.48326e-005 0.00712675
8 65 0.000275054 0.00674674
8 66 0.000315223 0.00659634
8 67 5.12198e-005 0.00704379
8 68 0.000165416 0.00690135
8 69 0.000365583 0.0063664
8 70 0.000184576 0.00664573
8 71 -7.44465e-005 0.00704164
8 72 0.00026237 0.00638688
8 73 0.000300235 0.00613375
8 74 -0.000125941 0.00687282
8 75 -0.000164171 0.00674249
8 76 0.000336562 0.00580627
8 77 -4.83081e-005 0.00634664
8 78 -0.000554616 0.00709096
8 79 -0.000134083 0.00609867
8 80 0.000225284 0.00562819
8 81 -0.000804122 0.00708834
8 82 -0.000920618 0.00693655
8 83 4.54513e-006 0.00541488
8 84 -0.000436179 0.00640024
8 85 -0.00198569 0.00798397
8 86 -0.000882674 0.00619446
8 87 -0.00015069 0.00551219
8 88 -0.00235318 0.00822315
8 89 -0.003086 0.00824926
8 90 -0.000234443 0.00545574
8 91 -0.00262944 0.00732265
8 92 -0.00560764 0.00975209
8 93 -0.0030401 0.00673757
8 94 -0.000972997 0.00559311
8 95 -0.00969586 0.0093962
8 96 -0.00841653 0.00687969
8 97 0.000512725 0.00106997
8 98 0.0243237 -0.0048536
8 99 0.0965128 -0.00101206
8 100 0.1 0
9 0 0 0
9 1 3.93454e-008 -1.32343e-006
9 2 4.90732e-005 -3.59551e-006
9 3 7.50223e-005 -2.02833e-005
9 4 9.39623e-005 -4.10683e-005
9 5 0.000101665 -5.75258e-005
9 6 8.1389e-005 -6.54754e-005
9 7 4.63737e-005 -8.28969e-005
9 8 1.03399e-005 -8.74297e-005
9 9 -4.64428e-005 -7.20377e-005
9 10 -0.00012266 -5.01808e-005
9 11 -0.000190562 -3.04194e-005
9 12 -0.000261794 2.06924e-005
9 13 -0.000352991 9.25818e-005
9 14 -0.000441842 0.00016076
9 15 -0.000514387 0.000242741
9 16 -0.00060488 0.000368266
9 17 -0.000703133 0.000497175
9 18 -0.000780195 0.000619256
9 19 -0.000854937 0.000781434
9 20 -0.000952342 0.000978568
9 21 -0.00103109 0.00115335
9 22 -0.00108705 0.00134035
9 23 -0.00116052 0.00158569
9 24 -0.00123656 0.00182781
9 25 -0.00127224 0.00203712
9 26 -0.00130433 0.0022948
9 27 -0.00135859 0.00259341
9 28 -0.00138033 0.00283809
9 29 -0.00136542 0.00307546
9 30 -0.00137315 0.00338472
9 31 -0.0013839 0.00367468
9 32 -0.0013365 0.00388654
9 33 -0.00128553 0.00414657
9 34 -0.00126972 0.00445586
9 35 -0.00122332 0.00467249
9 36 -0.00112313 0.00484533
9 37 -0.00106537 0.00511486
9 38 -0.00102839 0.00535608
9 39 -0.000932393 0.00547225
9 40 -0.000819368 0.00563229
9 41 -0.000783995 0.0058816
9 42 -0.000726973 0.00600352
9 43 -0.000604574 0.0060529
9 44 -0.0005256 0.00623413
9 45 -0.000524107 0.00641707
9 46 -0.000437589 0.00641863
9 47 -0.000323047 0.00647957
9 48 -0.000313243 0.00668531
9 49 -0.000318197 0.00675528
9 50 -0.000190174 0.00669598
9 51 -0.00013186 0.00684044
9 52 -0.000184338 0.00701775
9 53 -0.000133471 0.00695547
9 54 1.31496e-005 0.00693418
9 55 -2.96216e-005 0.00716819
9 56 -7.47804e-005 0.00721876
9 57 7.33048e-005 0.00706495
9 58 0.000158071 0.0071722
9 59 2.00705e-005 0.00740202
9 60 8.45883e-005 0.00724437
9 61 0.000282412 0.00711708
9 62 0.000208017 0.00736987
9 63 6.85324e-005 0.00742961
9 64 0.000301318 0.00708962
9 65 0.000397309 0.00714573
9 66 0.000143916 0.00743318
9 67 0.000166959 0.00718382
9 68 0.000495701 0.00684244
9 69 0.000304656 0.00717107
9 70 2.0772e-005 0.00726175
9 71 0.000336452 0.00672031
9 72 0.000509532 0.00665608
9 73 -2.75033e-005 0.00715625
9 74 -3.00904e-005 0.00680617
9 75 0.000493719 0.00622664
9 76 0.000161436 0.00665197
9 77 -0.00047116 0.00698848
9 78 9.55666e-005 0.00612824
9 79 0.000375029 0.00596193
9 80 -0.000615658 0.00681517
9 81 -0.000759848 0.00652585
9 82 0.000272605 0.00543989
9 83 -0.000414352 0.0061585
9 84 -0.00160638 0.00693331
9 85 -0.00071718 0.00567942
9 86 -7.25327e-005 0.00513079
9 87 -0.00208281 0.00691379
9 88 -0.00242735 0.00651806
9 89 -0.000789445 0.00454097
9 90 -0.00182337 0.00595203
9 91 -0.00474866 0.00769569
9 92 -0.00272789 0.00466909
9 93 -0.00245779 0.00435024
9 94 -0.00626022 0.00805489
9 95 -0.00615254 0.0060497
9 96 -0.00288265 -2.71301e-005
9 97 -0.000762904 0.00302338
9 98 0.024127 0.00537165
9 99 0.0969486 -0.000118625
9 100 0.1 0
10 0 0 0
10 1 -1.55479e-006 -1.36239e-006
10 2 5.16784e-005 -6.69147e-007
10 3 9.41217e-005 -1.84314e-005
10 4 0.000110119 -3.95249e-005
10 5 0.000104165 -5.24278e-005
10 6 9.0007e-005 -5.80734e-005
10 7 5.76548e-005 -7.43177e-005
10 8 -3.05718e-006 -7.41227e-005
10 9 -7.19736e-005 -5.6214e-005
10 10 -0.000142178 -3.50804e-005
10 11 -0.00022998 -9.87472e-006
10 12 -0.000333555 4.90218e-005
10 13 -0.000422942 0.000119404
10 14 -0.000516055 0.000190301
10 15 -0.000628845 0.000286855
10 16 -0.000737603 0.000417193
10 17 -0.000823902 0.000543558
10 18 -0.000930391 0.000683491
10 19 -0.0010473 0.000865658
10 20 -0.00113537 0.00106022
10 21 -0.00121317 0.00124583
10 22 -0.00132155 0.00146955
10 23 -0.00140955 0.00172675
10 24 -0.00145684 0.00196597
10 25 -0.00152136 0.00221344
10 26 -0.00160061 0.00251091
10 27 -0.00162377 0.00280237
10 28 -0.00162506 0.00306145
10 29 -0.00166432 0.0033591
10 30 -0.00167617 0.00368247
10 31 -0.00162357 0.00395218
10 32 -0.00159095 0.00420916
10 33 -0.00158872 0.00452118
10 34 -0.00151741 0.00480016
10 35 -0.00141491 0.00500772
10 36 -0.00136907 0.00524811
10 37 -0.00131842 0.00552246
10 38 -0.00118411 0.00570193
10 39 -0.00108121 0.00584523
10 40 -0.00104116 0.00606221
10 41 -0.000947208 0.00625228
10 42 -0.0007969 0.00632275
10 43 -0.000742656 0.00643907
10 44 -0.000709014 0.00662741
10 45 -0.000584375 0.00670862
10 46 -0.000474244 0.00671571
10 47 -0.000486483 0.00685861
10 48 -0.000432205 0.00699777
10 49 -0.000300005 0.0069787
10 50 -0.000271595 0.0070089
10 51 -0.000315406 0.00719917
10 52 -0.000204392 0.00724371
10 53 -0.000105505 0.0071794
10 54 -0.000160619 0.00731122
10 55 -0.000161147 0.00748877
10 56 8.72407e-006 0.00740013
10 57 2.11675e-005 0.00739072
10 58 -6.83092e-005 0.00762203
10 59 3.89267e-005 0.00765917
10 60 0.000204539 0.00747356
10 61 9.46258e-005 0.00761931
10 62 5.82902e-005 0.00782526
10 63 0.000272566 0.00762525
10 64 0.000321516 0.00749245
10 65 0.000114419 0.00780523
10 66 0.000223254 0.00777813
10 67 0.000451026 0.00740225
10 68 0.000284815 0.00752493
10 69 9.60311e-005 0.00784118
10 70 0.000388934 0.0074253
10 71 0.000454852 0.00715377
10 72 7.31616e-005 0.00761207
10 73 8.49396e-005 0.00759908
10 74 0.000473731 0.00688865
10 75 0.000182069 0.00711766
10 76 -0.000250758 0.00766061
10 77 0.000117854 0.00701756
10 78 0.000334852 0.00649885
10 79 -0.000419259 0.00741657
10 80 -0.000551522 0.00742028
10 81 0.000149375 0.00627633
10 82 -0.000252524 0.00668405
10 83 -0.00131815 0.007828
10 84 -0.000638654 0.00668574
10 85 -7.85327e-005 0.00595116
10 86 -0.00165093 0.00757276
10 87 -0.00222489 0.00774182
10 88 -0.000407225 0.00577372
10 89 -0.00152474 0.00672301
10 90 -0.00400857 0.00834
10 91 -0.00236183 0.00665431
10 92 -0.000971639 0.00561752
10 93 -0.0054829 0.00788215
10 94 -0.00598584 0.0068898
10 95 -0.000643553 0.00539373
10 96 -0.00422808 0.00685607