Title= "LBM Lid Driven Flow"
VARIABLES="X","Y","U","V"
ZONE T="BOX",I=101,J=101,F=POINT
0 0 0 0
0 1 0 0
0 2 0 0
0 3 0 0
0 4 0 0
0 5 0 0
0 6 0 0
0 7 0 0
0 8 0 0
0 9 0 0
0 10 0 0
0 11 0 0
0 12 0 0
0 13 0 0
0 14 0 0
0 15 0 0
0 16 0 0
0 17 0 0
0 18 0 0
0 19 0 0
0 20 0 0
0 21 0 0
0 22 0 0
0 23 0 0
0 24 0 0
0 25 0 0
0 26 0 0
0 27 0 0
0 28 0 0
0 29 0 0
0 30 0 0
0 31 0 0
0 32 0 0
0 33 0 0
0 34 0 0
0 35 0 0
0 36 0 0
0 37 0 0
0 38 0 0
0 39 0 0
0 40 0 0
0 41 0 0
0 42 0 0
0 43 0 0
0 44 0 0
0 45 0 0
0 46 0 0
0 47 0 0
0 48 0 0
0 49 0 0
0 50 0 0
0 51 0 0
0 52 0 0
0 53 0 0
0 54 0 0
0 55 0 0
0 56 0 0
0 57 0 0
0 58 0 0
0 59 0 0
0 60 0 0
0 61 0 0
0 62 0 0
0 63 0 0
0 64 0 0
0 65 0 0
0 66 0 0
0 67 0 0
0 68 0 0
0 69 0 0
0 70 0 0
0 71 0 0
0 72 0 0
0 73 0 0
0 74 0 0
0 75 0 0
0 76 0 0
0 77 0 0
0 78 0 0
0 79 0 0
0 80 0 0
0 81 0 0
0 82 0 0
0 83 0 0
0 84 0 0
0 85 0 0
0 86 0 0
0 87 0 0
0 88 0 0
0 89 0 0
0 90 0 0
0 91 0 0
0 92 0 0
0 93 0 0
0 94 0 0
0 95 0 0
0 96 0 0
0 97 0 0
0 98 0 0
0 99 0 0
0 100 0.1 0
1 0 0 0
1 1 -7.68482e-006 7.65636e-006
1 2 3.12021e-006 5.61164e-005
1 3 -4.33242e-006 2.34748e-005
1 4 -8.63791e-008 1.07878e-005
1 5 -6.35486e-006 1.03241e-005
1 6 -6.7636e-007 4.68339e-006
1 7 -7.11703e-006 1.24928e-006
1 8 -1.40549e-006 7.03489e-006
1 9 -6.21746e-006 -8.28167e-006
1 10 -2.21607e-006 -1.41344e-005
1 11 -6.48502e-006 -9.21767e-006
1 12 -6.12967e-007 -1.59237e-005
1 13 -4.99201e-006 -3.78545e-005
1 14 -7.83088e-007 -3.43495e-005
1 15 -2.52657e-006 -3.4569e-005
1 16 3.36978e-006 -5.89519e-005
1 17 -4.38341e-007 -7.36167e-005
1 18 6.113e-006 -6.24516e-005
1 19 6.27781e-006 -7.90047e-005
1 20 1.2199e-005 -0.000107316
1 21 9.91882e-006 -9.86515e-005
1 22 1.99647e-005 -8.90782e-005
1 23 1.99185e-005 -0.000118047
1 24 2.61762e-005 -0.000120524
1 25 2.60676e-005 -8.38186e-005
1 26 3.82024e-005 -8.69655e-005
1 27 3.47559e-005 -0.000102785
1 28 4.23135e-005 -5.49849e-005
1 29 4.31195e-005 -1.13869e-005
1 30 5.33786e-005 -2.97422e-005
1 31 4.45175e-005 1.75488e-006
1 32 5.49951e-005 8.62514e-005
1 33 5.27621e-005 9.51902e-005
1 34 5.76438e-005 8.03412e-005
1 35 4.50483e-005 0.000172508
1 36 5.9386e-005 0.000234362
1 37 4.8798e-005 0.00018634
1 38 4.94585e-005 0.000215834
1 39 3.7743e-005 0.000336011
1 40 5.41165e-005 0.000307372
1 41 3.15679e-005 0.000241394
1 42 3.5274e-005 0.000349248
1 43 2.73931e-005 0.000414952
1 44 4.03885e-005 0.000281902
1 45 7.81322e-006 0.000294073
1 46 2.49492e-005 0.000447372
1 47 1.62015e-005 0.000365516
1 48 2.07174e-005 0.000220379
1 49 -1.17107e-005 0.000384026
1 50 2.40541e-005 0.000448867
1 51 9.58584e-007 0.000215646
1 52 1.52851e-006 0.00023037
1 53 -1.70957e-005 0.000475348
1 54 2.80934e-005 0.000299777
1 55 -2.11547e-005 8.71693e-005
1 56 -4.9683e-006 0.000359209
1 57 -7.62247e-006 0.000445953
1 58 2.58086e-005 4.92564e-005
1 59 -4.2893e-005 0.000128999
1 60 1.21664e-005 0.000502349
1 61 3.59466e-006 0.000206774
1 62 1.30194e-005 -0.000117854
1 63 -4.6999e-005 0.000364752
1 64 4.98589e-005 0.000455794
1 65 -7.12252e-007 -0.000152239
1 66 3.44951e-006 -1.09873e-005
1 67 -2.08095e-005 0.000610118
1 68 8.87251e-005 0.000110579
1 69 -2.31271e-005 -0.000372702
1 70 2.14913e-005 0.000373379
1 71 2.94834e-005 0.000588729
1 72 0.000108926 -0.000407568
1 73 -4.47577e-005 -0.00020939
1 74 8.4388e-005 0.000797804
1 75 8.1194e-005 0.000138806
1 76 0.000108578 -0.000787149
1 77 -3.63295e-005 0.000393561
1 78 0.000193178 0.000897316
1 79 0.000110832 -0.000685974
1 80 0.000106815 -0.000669002
1 81 3.24652e-005 0.00123582
1 82 0.000335929 0.000291839
1 83 0.000107656 -0.00161713
1 84 0.000139673 0.000263253
1 85 0.000201209 0.00177925
1 86 0.000491585 -0.00140572
1 87 7.76437e-005 -0.00205199
1 88 0.000282317 0.00216977
1 89 0.000544251 0.00070207
1 90 0.000608946 -0.0044699
1 91 4.47136e-005 -0.000215155
1 92 0.000740099 0.00469319
1 93 0.00123755 -0.00576022
1 94 0.00075808 -0.0110562
1 95 7.51535e-005 0.0067261
1 96 0.00249415 0.00296673
1 97 0.0022751 -0.0232018
1 98 -0.00299841 0.0341805
1 99 0.00731003 0.0123749
1 100 0.1 0
2 0 0 0
2 1 -6.23812e-005 -3.4577e-006
2 2 3.52626e-005 -3.1799e-005
2 3 -1.07537e-005 -2.29816e-005
2 4 5.24577e-005 -5.6719e-005
2 5 -1.63907e-005 -0.000113754
2 6 5.72858e-005 -0.000160994
2 7 -5.32949e-006 -0.000228333
2 8 5.40383e-005 -0.000308718
2 9 4.98181e-006 -0.000380062
2 10 5.8592e-005 -0.000452844
2 11 6.69925e-006 -0.000553309
2 12 6.04259e-005 -0.000646064
2 13 1.51684e-005 -0.000724577
2 14 5.71322e-005 -0.000818332
2 15 1.27684e-005 -0.000923635
2 16 5.76162e-005 -0.000993726
2 17 6.13425e-006 -0.00105424
2 18 4.32311e-005 -0.00112725
2 19 -5.49416e-006 -0.00116957
2 20 2.80986e-005 -0.00115642
2 21 -3.36401e-005 -0.00114321
2 22 3.57945e-006 -0.00111121
2 23 -6.16198e-005 -0.00100177
2 24 -3.22107e-005 -0.000846407
2 25 -0.000101356 -0.000695673
2 26 -5.93999e-005 -0.000476669
2 27 -0.000144962 -0.00017125
2 28 -9.94611e-005 0.000134784
2 29 -0.000171116 0.000449196
2 30 -0.000120505 0.000865234
2 31 -0.000218197 0.00131179
2 32 -0.000130589 0.00170729
2 33 -0.000211276 0.0021456
2 34 -0.000148859 0.00266683
2 35 -0.00024089 0.00311879
2 36 -0.000100549 0.00351093
2 37 -0.000215883 0.00398466
2 38 -0.000127075 0.00445609
2 39 -0.000199874 0.00477799
2 40 -2.92923e-005 0.00510591
2 41 -0.000204946 0.00551439
2 42 -5.29151e-005 0.00579054
2 43 -0.000120873 0.00593459
2 44 3.52614e-005 0.00619357
2 45 -0.000190216 0.00643608
2 46 6.77934e-005 0.00645132
2 47 -5.96949e-005 0.00648716
2 48 6.23892e-005 0.00667698
2 49 -0.000151567 0.00666171
2 50 0.000206888 0.00648232
2 51 -7.50393e-005 0.00653049
2 52 8.14687e-005 0.00657906
2 53 -6.72862e-005 0.00628292
2 54 0.000296835 0.00609947
2 55 -0.000172292 0.00619287
2 56 0.000169189 0.00596699
2 57 2.02625e-005 0.00552675
2 58 0.000274697 0.00553167
2 59 -0.000265408 0.00551968
2 60 0.000358119 0.00497447
2 61 -1.90113e-007 0.00468164
2 62 0.000176516 0.00487177
2 63 -0.000244793 0.00450882
2 64 0.000560076 0.00385395
2 65 -0.000199099 0.00396098
2 66 0.000149053 0.00404792
2 67 -0.000112062 0.00325915
2 68 0.000629115 0.00292325
2 69 -0.000502171 0.0033782
2 70 0.000316788 0.00296726
2 71 -4.10563e-006 0.00205445
2 72 0.000506295 0.00239789
2 73 -0.000748031 0.00276802
2 74 0.000677081 0.00170993
2 75 -7.66486e-005 0.0012647
2 76 0.000252425 0.00226405
2 77 -0.00081055 0.00195867
2 78 0.00115518 0.00057793
2 79 -0.000448841 0.00117452
2 80 -2.10602e-005 0.00230818
2 81 -0.00057657 0.000924288
2 82 0.00163112 1.87135e-005
2 83 -0.00128304 0.00193647
2 84 -9.05765e-005 0.00223488
2 85 0.000158982 -0.000144862
2 86 0.00167363 0.000707751
2 87 -0.0027828 0.00371177
2 88 0.000732177 0.00184074
2 89 0.00161106 -0.000525674
2 90 -0.000335993 0.004139
2 91 -0.00488452 0.0070964
2 92 0.00464001 0.00159158
2 93 0.00474431 0.00140569
2 94 -0.00833628 0.0136692
2 95 -0.00909377 0.0169223
2 96 0.0154644 0.0126266
2 97 -0.0181708 0.0400226
2 98 -0.0252758 0.0350057
2 99 0.0908181 0.000704945
2 100 0.1 0
3 0 0 0
3 1 -2.59707e-005 3.44145e-006
3 2 2.57358e-005 1.1069e-005
3 3 4.42091e-005 -4.04875e-005
3 4 9.77936e-005 -0.000106099
3 5 8.24585e-005 -0.000191988
3 6 0.000125474 -0.000286607
3 7 0.000122196 -0.000404727
3 8 0.000149525 -0.000531816
3 9 0.000136698 -0.000666568
3 10 0.000172581 -0.000807828
3 11 0.000162256 -0.000963198
3 12 0.000175907 -0.00111067
3 13 0.000165181 -0.001261
3 14 0.000186114 -0.00141363
3 15 0.000152967 -0.00155431
3 16 0.000147523 -0.0016673
3 17 0.000120324 -0.00177101
3 18 0.000103305 -0.0018458
3 19 3.14917e-005 -0.00186891
3 20 2.54432e-006 -0.00184687
3 21 -6.01265e-005 -0.00178891
3 22 -0.000124764 -0.00165652
3 23 -0.000226627 -0.00144792
3 24 -0.000267521 -0.00118964
3 25 -0.00036547 -0.000865244
3 26 -0.000452554 -0.000441897
3 27 -0.0005454 4.03359e-005
3 28 -0.000571582 0.000560031
3 29 -0.000681174 0.00116178
3 30 -0.000737396 0.00183735
3 31 -0.000776635 0.0025139
3 32 -0.000767002 0.00321279
3 33 -0.000858131 0.00398412
3 34 -0.00083602 0.00475332
3 35 -0.000809447 0.0054635
3 36 -0.000767485 0.00619827
3 37 -0.000821771 0.00696095
3 38 -0.000705329 0.0076272
3 39 -0.000648056 0.00822446
3 40 -0.000599017 0.00886079
3 41 -0.000606625 0.00944194
3 42 -0.000414725 0.00987097
3 43 -0.000395233 0.0102906
3 44 -0.000349405 0.0107335
3 45 -0.000297249 0.011022
3 46 -8.79722e-005 0.0111977
3 47 -0.000167594 0.0114474
3 48 -8.07176e-005 0.0116283
3 49 2.34149e-005 0.0116099
3 50 0.000157841 0.0116206
3 51 -1.08996e-005 0.0117077
3 52 0.000199747 0.0115826
3 53 0.00027034 0.011359
3 54 0.000264428 0.0113109
3 55 0.000126508 0.011181
3 56 0.000479939 0.0107825
3 57 0.000354398 0.0105362
3 58 0.000283547 0.0104342
3 59 0.000324093 0.010008
3 60 0.000670354 0.00950697
3 61 0.000254034 0.00937722
3 62 0.000363019 0.00907742
3 63 0.000555094 0.00839027
3 64 0.000647069 0.00805635
3 65 9.94852e-005 0.00798187
3 66 0.000603805 0.00731332
3 67 0.000642113 0.00663098
3 68 0.000416497 0.00663781
3 69 0.000101938 0.00632856
3 70 0.000905949 0.00533689
3 71 0.000420447 0.00507699
3 72 0.000187112 0.00527459
3 73 0.000334734 0.00441845
3 74 0.00102972 0.00352124
3 75 -5.71311e-005 0.00396058
3 76 0.000195211 0.00383256
3 77 0.000645698 0.00243059
3 78 0.000826504 0.00231582
3 79 -0.000554847 0.00325339
3 80 0.000513913 0.00214873
3 81 0.000811107 0.000772606
3 82 0.000295203 0.00207873
3 83 -0.000847619 0.0026144
3 84 0.00112586 0.0001624
3 85 0.000581788 0.000135162
3 86 -0.00064982 0.00296529
3 87 -0.000755999 0.00135217
3 88 0.00215014 -0.00188755
3 89 -0.000760646 0.00184327
3 90 -0.0026479 0.00472233
3 91 -0.000124722 -0.00181917
3 92 0.004573 -0.00284936
3 93 -0.00349983 0.00911445
3 94 -0.0101647 0.00715421
3 95 -0.00403988 -0.00636014
3 96 -0.00675254 0.0138518
3 97 -0.03529 0.0263177
3 98 0.0096553 0.0118862
3 99 0.101559 -0.000107247
3 100 0.1 0
4 0 0 0
4 1 -4.71876e-006 2.38619e-008
4 2 5.17258e-005 -5.78865e-005
4 3 0.000104257 -0.000104257
4 4 0.000161187 -0.000161536
4 5 0.000209862 -0.00027704
4 6 0.000228344 -0.000422909
4 7 0.000263204 -0.000569258
4 8 0.0002788 -0.000711477
4 9 0.00030138 -0.000890289
4 10 0.000308073 -0.00106733
4 11 0.000326965 -0.00122841
4 12 0.000320574 -0.00139564
4 13 0.000321779 -0.00157673
4 14 0.000300866 -0.00171481
4 15 0.000278692 -0.00182632
4 16 0.0002281 -0.00193637
4 17 0.000178059 -0.00200486
4 18 9.57016e-005 -0.0019913
4 19 9.22954e-006 -0.00194753
4 20 -0.000103823 -0.00186619
4 21 -0.000220108 -0.00167949
4 22 -0.00036598 -0.00140567
4 23 -0.000501679 -0.00110524
4 24 -0.000657599 -0.000717437
4 25 -0.000808682 -0.000199572
4 26 -0.000969395 0.000359484
4 27 -0.00109663 0.000943766
4 28 -0.00123996 0.00165088
4 29 -0.00136039 0.00244269
4 30 -0.0014635 0.00320139
4 31 -0.00151784 0.0040005
4 32 -0.00159724 0.00491571
4 33 -0.00163071 0.00581114
4 34 -0.00162922 0.00662129
4 35 -0.00158927 0.0075048
4 36 -0.00159097 0.0084387
4 37 -0.00151781 0.00923701
4 38 -0.00142257 0.00996741
4 39 -0.00132207 0.0107986
4 40 -0.00126304 0.0115547
4 41 -0.00110201 0.0121173
4 42 -0.000972253 0.0127088
4 43 -0.000861411 0.0133672
4 44 -0.000759469 0.0138012
4 45 -0.000556365 0.0141116
4 46 -0.000464261 0.0145622
4 47 -0.000360698 0.014931
4 48 -0.000223939 0.0150033
4 49 -4.5096e-005 0.0151602
4 50 -2.99458e-005 0.0154439
4 51 9.99998e-005 0.0154232
4 52 0.000243276 0.0152434
4 53 0.000329012 0.0153633
4 54 0.00030172 0.0153615
4 55 0.000501714 0.0149579
4 56 0.000570082 0.014757
4 57 0.000548637 0.0148186
4 58 0.000579718 0.0143787
4 59 0.000817604 0.0138084
4 60 0.000711427 0.0137683
4 61 0.000687291 0.0135405
4 62 0.000844406 0.0126852
4 63 0.000971911 0.0123209
4 64 0.00069499 0.0123369
4 65 0.000855568 0.0115571
4 66 0.00103638 0.0106559
4 67 0.000896825 0.0107276
4 68 0.000648267 0.0103719
4 69 0.00107929 0.00911609
4 70 0.00100779 0.00873935
4 71 0.000647743 0.00900184
4 72 0.000710676 0.00787789
4 73 0.00122492 0.00675533
4 74 0.000667582 0.00719628
4 75 0.000418573 0.00696402
4 76 0.000893719 0.00522098
4 77 0.00108399 0.00508228
4 78 9.98271e-005 0.00594381
4 79 0.000418653 0.00460639
4 80 0.00106399 0.00311624
4 81 0.000481648 0.00444421
4 82 -0.000479757 0.00470167
4 83 0.00080647 0.00232493
4 84 0.000950855 0.00239608
4 85 -0.000781691 0.00480736
4 86 -0.000739783 0.00326799
4 87 0.00164003 0.000952746
4 88 -9.42765e-005 0.0039667
4 89 -0.0029492 0.00579802
4 90 -2.21979e-005 0.00156192
4 91 0.00210565 0.00182239
4 92 -0.00339373 0.00916318
4 93 -0.00508139 0.00755567
4 94 -0.000850627 0.00180985
4 95 -0.0102885 0.0118612
4 96 -0.0163782 0.0114139
4 97 -0.00967333 -0.0101619
4 98 0.0100954 -0.0179653
4 99 0.0930517 -0.00112612
4 100 0.1 0
5 0 0 0
5 1 -6.64218e-006 6.20445e-006
5 2 0.00011088 1.11722e-005
5 3 0.000191381 -8.95117e-005
5 4 0.000272114 -0.000211781
5 5 0.000347748 -0.000344308
5 6 0.000390194 -0.00048547
5 7 0.000429531 -0.000657151
5 8 0.000459545 -0.000836923
5 9 0.000493992 -0.00102504
5 10 0.000495263 -0.00120499
5 11 0.000507966 -0.00138979
5 12 0.000504569 -0.00156253
5 13 0.00048584 -0.00171664
5 14 0.000432189 -0.00184072
5 15 0.000387338 -0.0019425
5 16 0.000302924 -0.00199572
5 17 0.000188455 -0.00199219
5 18 4.9318e-005 -0.00193362
5 19 -8.86538e-005 -0.00181582
5 20 -0.000282622 -0.00160956
5 21 -0.000491721 -0.00132324
5 22 -0.000701736 -0.000968118
5 23 -0.000916065 -0.000524225
5 24 -0.00117741 2.17322e-005
5 25 -0.00140921 0.000637083
5 26 -0.00161875 0.00131558
5 27 -0.00183572 0.00208769
5 28 -0.00206452 0.00293397
5 29 -0.00221197 0.00380651
5 30 -0.00233723 0.00472013
5 31 -0.00247141 0.00570382
5 32 -0.0025699 0.00669803
5 33 -0.00256365 0.00766444
5 34 -0.00256824 0.00864922
5 35 -0.00257313 0.0096576
5 36 -0.00250513 0.0106011
5 37 -0.00235818 0.0114892
5 38 -0.00227185 0.0123837
5 39 -0.002155 0.0132396
5 40 -0.00195568 0.0139797
5 41 -0.00174708 0.0146843
5 42 -0.00162735 0.01538
5 43 -0.00141828 0.015971
5 44 -0.00116744 0.0164521
5 45 -0.000988682 0.0169462
5 46 -0.000861613 0.0173821
5 47 -0.00059029 0.0176736
5 48 -0.000385975 0.0179272
5 49 -0.000280161 0.0182131
5 50 -0.000120089 0.0183534
5 51 0.000161396 0.0183865
5 52 0.000236021 0.018479
5 53 0.00031347 0.0185323
5 54 0.000536145 0.0183764
5 55 0.000729942 0.0182548
5 56 0.000666551 0.0182131
5 57 0.000826499 0.0179776
5 58 0.0010595 0.0176029
5 59 0.00106639 0.0174366
5 60 0.000980111 0.0171918
5 61 0.00129305 0.0166525
5 62 0.00137226 0.0162282
5 63 0.00120707 0.0160277
5 64 0.00128776 0.0154487
5 65 0.00165147 0.0147399
5 66 0.00141028 0.0144355
5 67 0.00128301 0.0140385
5 68 0.00161621 0.0130913
5 69 0.00174336 0.012514
5 70 0.0012213 0.0123188
5 71 0.00144427 0.0114833
5 72 0.00181566 0.0104105
5 73 0.00144683 0.0102568
5 74 0.00100922 0.0098767
5 75 0.0017031 0.00855237
5 76 0.00161981 0.00787582
5 77 0.000856569 0.00813367
5 78 0.00101418 0.00713208
5 79 0.00183438 0.00571318
5 80 0.00087168 0.00598243
5 81 0.000286601 0.00613648
5 82 0.00129352 0.00426418
5 83 0.00145758 0.00365156
5 84 -0.000342179 0.00504455
5 85 2.39229e-005 0.00411389
5 86 0.00161183 0.00168339
5 87 9.17492e-005 0.00318273
5 88 -0.00190697 0.0050346
5 89 0.000158254 0.0019424
5 90 0.00124646 0.000532898
5 91 -0.0029527 0.00531784
5 92 -0.00470875 0.00519856
5 93 -0.000233472 0.0013473
5 94 -0.0048299 0.00674454
5 95 -0.0151788 0.00611688
5 96 -0.000719166 -0.00328761
5 97 -0.00956154 0.000853973
5 98 0.00312143 0.00791949
5 99 0.0871929 0.00127134
5 100 0.1 0
6 0 0 0
6 1 -6.35322e-006 -1.88281e-008
6 2 0.000164009 -5.01663e-005
6 3 0.000291533 -0.000118604
6 4 0.000403576 -0.000230512
6 5 0.000480239 -0.000381347
6 6 0.000554983 -0.000533813
6 7 0.000602757 -0.000715995
6 8 0.000636446 -0.000900128
6 9 0.00066013 -0.0010713
6 10 0.000673845 -0.00123632
6 11 0.000665873 -0.00141351
6 12 0.000638409 -0.00154981
6 13 0.000592088 -0.00164668
6 14 0.000519128 -0.00172671
6 15 0.000411666 -0.00176891
6 16 0.000273313 -0.00172254
6 17 0.000107487 -0.00162437
6 18 -9.31957e-005 -0.00148238
6 19 -0.000331919 -0.00124159
6 20 -0.000592658 -0.000893921
6 21 -0.000871501 -0.000500105
6 22 -0.00117417 -2.67794e-005
6 23 -0.00149607 0.000578765
6 24 -0.00180686 0.00125859
6 25 -0.00211253 0.00196852
6 26 -0.00241557 0.00278649
6 27 -0.0027045 0.00371251
6 28 -0.00294176 0.00463847
6 29 -0.0031519 0.00558491
6 30 -0.00333443 0.00663987
6 31 -0.003477 0.00771733
6 32 -0.00354004 0.00871897
6 33 -0.00357523 0.00975085
6 34 -0.00357717 0.0108486
6 35 -0.00352908 0.0118564
6 36 -0.0034023 0.0127643
6 37 -0.00327947 0.0137301
6 38 -0.0031248 0.0146744
6 39 -0.0029226 0.0154462
6 40 -0.00267661 0.0161756
6 41 -0.00247501 0.0169726
6 42 -0.00222552 0.0176282
6 43 -0.0019499 0.0181195
6 44 -0.00168486 0.0186773
6 45 -0.00147188 0.0192349
6 46 -0.0011789 0.0195513
6 47 -0.000917317 0.0198337
6 48 -0.000701645 0.0202444
6 49 -0.000491018 0.0204924
6 50 -0.000196348 0.0205193
6 51 -2.16663e-005 0.020711
6 52 0.000146187 0.0209283
6 53 0.000372485 0.0208255
6 54 0.000608331 0.0207129
6 55 0.00067089 0.0208638
6 56 0.000857205 0.0207591
6 57 0.00108272 0.0203797
6 58 0.00118818 0.0203032
6 59 0.00119958 0.0202967
6 60 0.00146687 0.0197754
6 61 0.0015958 0.0193503
6 62 0.00155947 0.0193468
6 63 0.0016482 0.018936
6 64 0.00195486 0.0181183
6 65 0.00186081 0.0179121
6 66 0.00180181 0.0177444
6 67 0.00205162 0.0167832
6 68 0.00221556 0.0160628
6 69 0.00187765 0.0160983
6 70 0.00200895 0.0153503
6 71 0.00232215 0.0140924
6 72 0.00212569 0.0139066
6 73 0.00173387 0.0137617
6 74 0.00220341 0.0122462
6 75 0.00226488 0.0114044
6 76 0.00165983 0.0117654
6 77 0.0015733 0.0107739
6 78 0.00228406 0.00900026
6 79 0.00168091 0.00931432
6 80 0.000960241 0.00949594
6 81 0.00152261 0.0074159
6 82 0.00201957 0.00661362
6 83 0.000448844 0.00808198
6 84 0.000328533 0.00693575
6 85 0.00158052 0.00460371
6 86 0.000914356 0.00609438
6 87 -0.00148756 0.00747979
6 88 0.000212649 0.00432945
6 89 0.00115085 0.00381193
6 90 -0.00236585 0.00802826
6 91 -0.00375807 0.00740397
6 92 0.000262039 0.00345374
6 93 -0.00461617 0.00743055
6 94 -0.00961849 0.010989
6 95 -0.00573644 0.00671185
6 96 -0.000329053 0.00933144
6 97 -0.0152487 0.0127343
6 98 0.0101867 0.00210239
6 99 0.0937907 -0.000495198
6 100 0.1 0
7 0 0 0
7 1 9.99712e-006 5.39209e-006
7 2 0.000222261 -1.81039e-006
7 3 0.000401464 -0.000112026
7 4 0.000546895 -0.000236743
7 5 0.000641088 -0.000387555
7 6 0.000725392 -0.0005474
7 7 0.000785441 -0.000717782
7 8 0.000820082 -0.000881351
7 9 0.000832454 -0.00105424
7 10 0.000838521 -0.00120749
7 11 0.00081111 -0.00133357
7 12 0.000748972 -0.00142872
7 13 0.000665812 -0.00150049
7 14 0.0005523 -0.00151138
7 15 0.000382397 -0.00146024
7 16 0.000177498 -0.00135486
7 17 -5.34846e-005 -0.00118392
7 18 -0.000333877 -0.000912423
7 19 -0.000665726 -0.000561656
7 20 -0.00100717 -0.000140364
7 21 -0.00137118 0.000382017
7 22 -0.00177455 0.00101557
7 23 -0.00218767 0.0017169
7 24 -0.00256802 0.00249286
7 25 -0.00295889 0.00337747
7 26 -0.00334969 0.0043402
7 27 -0.00368823 0.00533285
7 28 -0.00395903 0.00638346
7 29 -0.00423232 0.00750847
7 30 -0.00445154 0.00864156
7 31 -0.00457291 0.00975378
7 32 -0.00463073 0.0108906
7 33 -0.00469231 0.012038
7 34 -0.00465528 0.0131173
7 35 -0.00452973 0.0141451
7 36 -0.00438406 0.0151682
7 37 -0.00424232 0.0161339
7 38 -0.00398274 0.0169896
7 39 -0.00370013 0.017806
7 40 -0.00344315 0.0185932
7 41 -0.00316988 0.0192715
7 42 -0.00279269 0.0198544
7 43 -0.0024864 0.0204351
7 44 -0.00220205 0.0209472
7 45 -0.00186633 0.021333
7 46 -0.00148774 0.0216891
7 47 -0.00125101 0.0220569
7 48 -0.000958637 0.0222964
7 49 -0.000616484 0.0224516
7 50 -0.000329579 0.0226544
7 51 -0.000169587 0.0228148
7 52 0.000155219 0.0228066
7 53 0.000432404 0.0228265
7 54 0.00059147 0.0229087
7 55 0.000746695 0.0228323
7 56 0.00109981 0.0226407
7 57 0.00122704 0.0226082
7 58 0.00131548 0.0225188
7 59 0.00154698 0.0221864
7 60 0.00184103 0.021925
7 61 0.00178409 0.0218419
7 62 0.0019414 0.0214666
7 63 0.00223287 0.0209486
7 64 0.00233002 0.0207275
7 65 0.00218238 0.0204591
7 66 0.00253141 0.0197321
7 67 0.00270706 0.0192185
7 68 0.00254723 0.0190195
7 69 0.00252533 0.0183503
7 70 0.0030182 0.0174029
7 71 0.00281333 0.0170962
7 72 0.00255762 0.0166844
7 73 0.00285311 0.0155258
7 74 0.00317321 0.0147209
7 75 0.00246305 0.0146226
7 76 0.00251424 0.013658
7 77 0.00302745 0.0122767
7 78 0.00270802 0.0120229
7 79 0.00178375 0.0118052
7 80 0.0025462 0.0101539
7 81 0.00267569 0.00919728
7 82 0.00151381 0.00962663
7 83 0.00111593 0.00875377
7 84 0.00251363 0.006771
7 85 0.00129887 0.00705275
7 86 -0.000212127 0.00771967
7 87 0.000651352 0.00573211
7 88 0.0016971 0.00451627
7 89 -0.00157119 0.00663642
7 90 -0.00244724 0.00608747
7 91 -0.000629812 0.0032344
7 92 -0.00201635 0.00553774
7 93 -0.00823362 0.00770902
7 94 -0.00466311 0.00330879
7 95 -0.00784262 0.00333557
7 96 -0.0125144 0.00974557
7 97 -0.0104402 0.0134988
7 98 0.0202 0.00847196
7 99 0.0964265 -0.000159518
7 100 0.1 0
8 0 0 0
8 1 9.10828e-006 1.26592e-006
8 2 0.000285584 -4.96181e-005
8 3 0.000503626 -0.000128859
8 4 0.000667959 -0.0002235
8 5 0.000798488 -0.000369006
8 6 0.000880188 -0.000528099
8 7 0.000937291 -0.000682025
8 8 0.000971293 -0.000818729
8 9 0.000977962 -0.000964563
8 10 0.000944961 -0.00107771
8 11 0.000890722 -0.0011497
8 12 0.000800046 -0.00119031
8 13 0.000663691 -0.00119741
8 14 0.000476638 -0.00112129
8 15 0.000257709 -0.000980014
8 16 -1.45256e-005 -0.000785838
8 17 -0.000342472 -0.000504938
8 18 -0.000712466 -0.000110758
8 19 -0.00110784 0.000351395
8 20 -0.00155051 0.000891947
8 21 -0.00202734 0.00155734
8 22 -0.00250668 0.00232451
8 23 -0.00298419 0.00314272
8 24 -0.00347557 0.00405738
8 25 -0.00395034 0.0050902
8 26 -0.0043719 0.00616229
8 27 -0.00475653 0.00725349
8 28 -0.00510778 0.0084329
8 29 -0.00539163 0.00966072
8 30 -0.00558309 0.010835
8 31 -0.00571825 0.0120018
8 32 -0.00579417 0.0132172
8 33 -0.00578601 0.0143753
8 34 -0.00568525 0.0154172
8 35 -0.00554844 0.0164574
8 36 -0.00535848 0.0174868
8 37 -0.00509905 0.018371
8 38 -0.00478649 0.0191553
8 39 -0.00448143 0.0199672
8 40 -0.00413116 0.0206902
8 41 -0.00374403 0.0212444
8 42 -0.00336061 0.0217876
8 43 -0.00300825 0.022354
8 44 -0.00260182 0.0227479
8 45 -0.00221031 0.0230442
8 46 -0.00186324 0.0234227
8 47 -0.0015229 0.0237382
8 48 -0.00112676 0.0238511
8 49 -0.000817221 0.02402
8 50 -0.000534548 0.0242663
8 51 -0.000206671 0.024314
8 52 0.000126181 0.02426
8 53 0.000320902 0.0243999
8 54 0.00058606 0.0244552
8 55 0.000899341 0.0242589
8 56 0.00111424 0.0241883
8 57 0.00123663 0.0242768
8 58 0.00154955 0.0240428
8 59 0.00178803 0.0237291
8 60 0.00186896 0.023729
8 61 0.00202749 0.0236012
8 62 0.00238075 0.0230733
8 63 0.00244363 0.0228393
8 64 0.00247277 0.0228091
8 65 0.00275678 0.022274
8 66 0.00301973 0.0216447
8 67 0.00286612 0.0215923
8 68 0.00301086 0.0212271
8 69 0.00336723 0.0202912
8 70 0.00335095 0.0198836
8 71 0.00309639 0.0198202
8 72 0.00348421 0.0188181
8 73 0.00366778 0.0178495
8 74 0.00328648 0.0178364
8 75 0.00318665 0.017261
8 76 0.00374593 0.0157084
8 77 0.0034152 0.0153228
8 78 0.00283658 0.0153813
8 79 0.00313954 0.0138522
8 80 0.003523 0.0125148
8 81 0.0024357 0.0130663
8 82 0.00213322 0.0123401
8 83 0.00286995 0.0101502
8 84 0.00244484 0.010228
8 85 0.000683023 0.0111439
8 86 0.00143323 0.00889686
8 87 0.00200014 0.00750436
8 88 -0.000216142 0.00957374
8 89 -0.00163863 0.00933475
8 90 0.000828839 0.00623411
8 91 -0.00174 0.00759009
8 92 -0.00551317 0.00980213
8 93 -0.00403405 0.00691622
8 94 -0.00237378 0.00591496
8 95 -0.0121858 0.0090369
8 96 -0.0117903 0.00579127
8 97 -0.00335416 9.84606e-005
8 98 0.0223133 -0.0052916
8 99 0.0966717 -0.00102418
8 100 0.1 0
9 0 0 0
9 1 1.51976e-005 4.27119e-006
9 2 0.000345831 -2.44438e-007
9 3 0.000611315 -9.44294e-005
9 4 0.000793591 -0.000215378
9 5 0.000945086 -0.000346974
9 6 0.0010299 -0.000466816
9 7 0.00108473 -0.000606361
9 8 0.00110141 -0.000732667
9 9 0.00109293 -0.000830231
9 10 0.00102658 -0.000893217
9 11 0.000933942 -0.000938918
9 12 0.000793283 -0.00092238
9 13 0.00060201 -0.000838381
9 14 0.000345507 -0.000700396
9 15 5.50475e-005 -0.000501571
9 16 -0.000301686 -0.00019397
9 17 -0.000716547 0.000200521
9 18 -0.00117938 0.000664935
9 19 -0.0016697 0.00123524
9 20 -0.00221696 0.00193511
9 21 -0.00278915 0.00271284
9 22 -0.00336171 0.00357053
9 23 -0.00393297 0.00455446
9 24 -0.00451579 0.00563696
9 25 -0.00505569 0.006755
9 26 -0.00553166 0.00793809
9 27 -0.00597072 0.00920935
9 28 -0.00635995 0.0104919
9 29 -0.00663643 0.0117452
9 30 -0.00681708 0.0130197
9 31 -0.00695174 0.0142994
9 32 -0.00699154 0.0154934
9 33 -0.00690356 0.0166165
9 34 -0.00675328 0.0177224
9 35 -0.00657369 0.0187532
9 36 -0.00628927 0.0196511
9 37 -0.00592914 0.0204939
9 38 -0.00557262 0.0212971
9 39 -0.00519606 0.021976
9 40 -0.00473242 0.0225464
9 41 -0.00428024 0.0231107
9 42 -0.00386842 0.0236043
9 43 -0.00341795 0.0239655
9 44 -0.00292834 0.0242963
9 45 -0.00252598 0.0246456
9 46 -0.00213327 0.0248728
9 47 -0.00168597 0.0250166
9 48 -0.00127928 0.0252145
9 49 -0.000972084 0.0253867
9 50 -0.000596159 0.0254007
9 51 -0.000207938 0.0254417
9 52 6.8644e-005 0.0255599
9 53 0.00032567 0.0255471
9 54 0.000698058 0.0254204
9 55 0.000970178 0.0254475
9 56 0.00114775 0.0254536
9 57 0.00143255 0.0252429
9 58 0.00176257 0.0250782
9 59 0.0018897 0.0251025
9 60 0.00207036 0.0248983
9 61 0.00240675 0.0245388
9 62 0.0026045 0.0244308
9 63 0.00264004 0.0243419
9 64 0.00293059 0.023849
9 65 0.0032268 0.023481
9 66 0.00322907 0.0234189
9 67 0.00331605 0.0230151
9 68 0.00371872 0.0222947
9 69 0.00379245 0.0220744
9 70 0.00366171 0.0218541
9 71 0.00394852 0.020996
9 72 0.00427655 0.0202969
9 73 0.00398179 0.0202176
9 74 0.00394396 0.0195033
9 75 0.00442171 0.0183264
9 76 0.00432215 0.017947
9 77 0.00373847 0.0177053
9 78 0.00408939 0.016313
9 79 0.00440688 0.0152968
9 80 0.00358458 0.0152988
9 81 0.00315838 0.0144295
9 82 0.00395784 0.0126533
9 83 0.00339034 0.0124024
9 84 0.00205321 0.0124153
9 85 0.00240342 0.0106669
9 86 0.00298905 0.00935807
9 87 0.000912348 0.0102312
9 88 3.77345e-007 0.00942586
9 89 0.00104211 0.0070869
9 90 -6.32921e-005 0.00769482
9 91 -0.00360785 0.00897632
9 92 -0.00250904 0.00595105
9 93 -0.00320955 0.00508183
9 94 -0.00753668 0.00817096
9 95 -0.00824369 0.00639537
9 96 -0.00625727 0.000572734
9 97 -0.00441561 0.00296291
9 98 0.0218864 0.00508077
9 99 0.09656 -7.40344e-005
9 100 0.1 0
10 0 0 0
10 1 1.96434e-005 2.31379e-007
10 2 0.000390405 -3.43679e-005
10 3 0.000703623 -9.48492e-005
10 4 0.000905966 -0.000181932
10 5 0.00105742 -0.000295027
10 6 0.001145 -0.000399027
10 7 0.00120184 -0.000510716
10 8 0.0011871 -0.000597296
10 9 0.00114506 -0.000652046
10 10 0.00105269 -0.000668175
10 11 0.000913209 -0.000653359
10 12 0.000698782 -0.000566516
10 13 0.000449324 -0.000411962
10 14 0.000130999 -0.000192723
10 15 -0.000255166 0.000105393
10 16 -0.000711899 0.000514056
10 17 -0.00120205 0.00101
10 18 -0.00176352 0.00159695
10 19 -0.00237938 0.00230349
10 20 -0.00302546 0.00313103
10 21 -0.00367619 0.00404261
10 22 -0.00436253 0.00505612
10 23 -0.00504363 0.00619006
10 24 -0.00567897 0.00739911
10 25 -0.00626656 0.00864599
10 26 -0.00682236 0.00996301
10 27 -0.00729162 0.0113327
10 28 -0.00764787 0.0126728
10 29 -0.00791831 0.013981
10 30 -0.00810575 0.0152989
10 31 -0.00817006 0.0165654
10 32 -0.0081138 0.0177098
10 33 -0.00798577 0.0187928
10 34 -0.0077783 0.0198377
10 35 -0.00747055 0.0207535
10 36 -0.00709218 0.021534
10 37 -0.00669492 0.022284
10 38 -0.00624406 0.0229626
10 39 -0.00574243 0.0234884
10 40 -0.00523912 0.0239462
10 41 -0.00475555 0.0244123
10 42 -0.00422934 0.024765
10 43 -0.0037091 0.0250049
10 44 -0.00323645 0.0252724
10 45 -0.00277476 0.02553
10 46 -0.00227477 0.0256397
10 47 -0.00184368 0.0257408
10 48 -0.00145817 0.0259151
10 49 -0.00103872 0.0259944
10 50 -0.000618094 0.0259598
10 51 -0.000314155 0.0260394
10 52 1.59806e-005 0.0261226
10 53 0.000401749 0.0260358
10 54 0.000703463 0.0259706
10 55 0.000913037 0.0260567
10 56 0.00125624 0.02598
10 57 0.00158118 0.0257869
10 58 0.00174956 0.0257786
10 59 0.00196176 0.0257812
10 60 0.00234238 0.0254979
10 61 0.00253439 0.025323
10 62 0.00262807 0.0253468
10 63 0.00294408 0.0251113
10 64 0.00328056 0.0246955
10 65 0.00329282 0.0246408
10 66 0.00345223 0.0245112
10 67 0.00386876 0.0239613
10 68 0.00400138 0.0236081
10 69 0.00390548 0.0236033
10 70 0.00426045 0.0230619
10 71 0.00459904 0.0223429
10 72 0.00441676 0.022212
10 73 0.00441244 0.0219401
10 74 0.00492741 0.0208904
10 75 0.00488911 0.0203655
10 76 0.0044736 0.0203352
10 77 0.00476026 0.0193885
10 78 0.00513751 0.0181516
10 79 0.00448386 0.0181497
10 80 0.00415874 0.0176922
10 81 0.00473087 0.0160065
10 82 0.00445715 0.0153458
10 83 0.00322095 0.0157028
10 84 0.00348835 0.0141788
10 85 0.00392397 0.0125457
10 86 0.00236238 0.0130977
10 87 0.00113841 0.0128615
10 88 0.00247153 0.0104281
10 89 0.0012937 0.0103389
10 90 -0.00177079 0.0113233
10 91 -0.00124486 0.00947567
10 92 -8.78351e-005 0.00788683
10 93 -0.00536158 0.00928103
10 94 -0.00708231 0.00778007
10 95 -0.00311782 0.00623409
10 96 -0.00732036 0.00748771
10 97 -0.00410451 0.00610287
10 98 0.026763 -0.000533324
10 99 0.0984874 -0.000926379
10 100 0.1 0
11 0 0 0
11 1 2.68613e-005 3.272e-006
11 2 0.000436756 -3.31939e-006
11 3 0.000781043 -7.64995e-005
11 4 0.0010033 -0.000148123
11 5 0.00116477 -0.000239646
11 6 0.00124335 -0.00032982
11 7 0.00128513 -0.000402597
11 8 0.00124801 -0.000441781
11 9 0.00117148 -0.000472482
11 10 0.00102891 -0.000449805
11 11 0.00083635 -0.00035895
11 12 0.000560288 -0.000211161
11 13 0.000234779 -1.16999e-005
11 14 -0.000171845 0.000296863
11 15 -0.000645196 0.000704495
11 16 -0.00119816 0.00118794
11 17 -0.00179959 0.00177696
11 18 -0.00247598 0.00251506
11 19 -0.00319751 0.00335482
11 20 -0.00395572 0.00428414
11 21 -0.00472418 0.00535336
11 22 -0.00551178 0.00655221
11 23 -0.00627173 0.00780319
11 24 -0.00698093 0.00911983
11 25 -0.00762863 0.0105352
11 26 -0.00821254 0.0119731
11 27 -0.00867768 0.0133663
11 28 -0.00901673 0.0147605
11 29 -0.00925868 0.0161506
11 30 -0.00938611 0.0174335
11 31 -0.00935968 0.0186041
11 32 -0.00922103 0.0197304
11 33 -0.00901393 0.0207638
11 34 -0.00869609 0.0216287
11 35 -0.00827233 0.0224021