Title= "LBM Lid Driven Flow"
VARIABLES="X","Y","U","V"
ZONE T="BOX",I=101,J=101,F=POINT
0 0 0 0
0 1 0 0
0 2 0 0
0 3 0 0
0 4 0 0
0 5 0 0
0 6 0 0
0 7 0 0
0 8 0 0
0 9 0 0
0 10 0 0
0 11 0 0
0 12 0 0
0 13 0 0
0 14 0 0
0 15 0 0
0 16 0 0
0 17 0 0
0 18 0 0
0 19 0 0
0 20 0 0
0 21 0 0
0 22 0 0
0 23 0 0
0 24 0 0
0 25 0 0
0 26 0 0
0 27 0 0
0 28 0 0
0 29 0 0
0 30 0 0
0 31 0 0
0 32 0 0
0 33 0 0
0 34 0 0
0 35 0 0
0 36 0 0
0 37 0 0
0 38 0 0
0 39 0 0
0 40 0 0
0 41 0 0
0 42 0 0
0 43 0 0
0 44 0 0
0 45 0 0
0 46 0 0
0 47 0 0
0 48 0 0
0 49 0 0
0 50 0 0
0 51 0 0
0 52 0 0
0 53 0 0
0 54 0 0
0 55 0 0
0 56 0 0
0 57 0 0
0 58 0 0
0 59 0 0
0 60 0 0
0 61 0 0
0 62 0 0
0 63 0 0
0 64 0 0
0 65 0 0
0 66 0 0
0 67 0 0
0 68 0 0
0 69 0 0
0 70 0 0
0 71 0 0
0 72 0 0
0 73 0 0
0 74 0 0
0 75 0 0
0 76 0 0
0 77 0 0
0 78 0 0
0 79 0 0
0 80 0 0
0 81 0 0
0 82 0 0
0 83 0 0
0 84 0 0
0 85 0 0
0 86 0 0
0 87 0 0
0 88 0 0
0 89 0 0
0 90 0 0
0 91 0 0
0 92 0 0
0 93 0 0
0 94 0 0
0 95 0 0
0 96 0 0
0 97 0 0
0 98 0 0
0 99 0 0
0 100 0.1 0
1 0 0 0
1 1 -7.31427e-006 7.13117e-006
1 2 3.26372e-006 5.0949e-005
1 3 -4.0345e-006 1.85848e-005
1 4 4.22314e-007 7.06249e-006
1 5 -5.51597e-006 6.39379e-006
1 6 2.7629e-007 -4.28806e-007
1 7 -5.99703e-006 -2.82616e-006
1 8 9.68046e-008 3.22914e-006
1 9 -4.53235e-006 -1.27218e-005
1 10 -3.03115e-007 -1.83191e-005
1 11 -4.38334e-006 -1.13667e-005
1 12 1.97924e-006 -1.80745e-005
1 13 -2.45486e-006 -3.93958e-005
1 14 2.04965e-006 -3.26703e-005
1 15 4.18458e-007 -2.98573e-005
1 16 6.55667e-006 -5.30191e-005
1 17 2.33702e-006 -6.33692e-005
1 18 9.07059e-006 -4.63705e-005
1 19 8.89302e-006 -5.97021e-005
1 20 1.44392e-005 -8.4252e-005
1 21 1.13291e-005 -6.82263e-005
1 22 2.11435e-005 -5.37626e-005
1 23 1.99592e-005 -8.07657e-005
1 24 2.5225e-005 -7.81187e-005
1 25 2.39956e-005 -3.63228e-005
1 26 3.53334e-005 -4.04291e-005
1 27 3.01437e-005 -5.71041e-005
1 28 3.66426e-005 -7.08831e-006
1 29 3.63746e-005 3.30773e-005
1 30 4.55377e-005 6.80877e-006
1 31 3.51613e-005 3.48807e-005
1 32 4.52577e-005 0.000114836
1 33 4.2265e-005 0.000111944
1 34 4.63492e-005 8.84307e-005
1 35 3.33947e-005 0.00017601
1 36 4.81923e-005 0.000226146
1 37 3.71042e-005 0.000166691
1 38 3.79508e-005 0.000194133
1 39 2.71901e-005 0.000306814
1 40 4.41388e-005 0.000264433
1 41 2.14382e-005 0.000197828
1 42 2.66777e-005 0.000307442
1 43 2.00133e-005 0.00036028
1 44 3.30925e-005 0.000222238
1 45 1.32322e-006 0.000244315
1 46 2.06466e-005 0.000392408
1 47 1.20542e-005 0.00029935
1 48 1.68691e-005 0.000164106
1 49 -1.36958e-005 0.000333707
1 50 2.32712e-005 0.000385924
1 51 -4.7074e-007 0.000156232
1 52 1.75503e-006 0.000183648
1 53 -1.55511e-005 0.000420907
1 54 2.93595e-005 0.000242626
1 55 -1.9504e-005 4.41243e-005
1 56 -1.21438e-006 0.000312663
1 57 -4.71782e-006 0.000394429
1 58 2.9091e-005 1.29015e-005
1 59 -3.80628e-005 9.18593e-005
1 60 1.70721e-005 0.000453793
1 61 6.99676e-006 0.000177786
1 62 1.91785e-005 -0.000139693
1 63 -4.11943e-005 0.000320606
1 64 5.41068e-005 0.000425073
1 65 4.35391e-006 -0.000155792
1 66 1.11877e-005 -4.05518e-005
1 67 -1.68752e-005 0.000571454
1 68 9.34124e-005 0.000111528
1 69 -1.65411e-005 -0.000375959
1 70 2.76456e-005 0.000335014
1 71 3.18831e-005 0.000576457
1 72 0.00011536 -0.000396021
1 73 -3.9685e-005 -0.000226843
1 74 8.8583e-005 0.000773303
1 75 8.44228e-005 0.000139574
1 76 0.000114669 -0.000789901
1 77 -3.41751e-005 0.000383605
1 78 0.000198827 0.000883909
1 79 0.000113958 -0.000705013
1 80 0.000110269 -0.000667056
1 81 3.53135e-005 0.00124605
1 82 0.000344257 0.000249423
1 83 0.000106589 -0.00164177
1 84 0.000143941 0.000307173
1 85 0.000208332 0.00176312
1 86 0.000497177 -0.00148178
1 87 7.2747e-005 -0.00200767
1 88 0.000294036 0.00223086
1 89 0.000549885 0.000615641
1 90 0.000609374 -0.0045152
1 91 4.43498e-005 -0.000117744
1 92 0.000750345 0.0047499
1 93 0.00122848 -0.00570796
1 94 0.000761322 -0.0109728
1 95 7.09338e-005 0.00673388
1 96 0.00248734 0.00298262
1 97 0.00228029 -0.0232779
1 98 -0.00300548 0.034051
1 99 0.00730574 0.0123684
1 100 0.1 0
2 0 0 0
2 1 -6.23869e-005 -3.28578e-006
2 2 3.6006e-005 -3.01165e-005
2 3 -1.08756e-005 -2.50409e-005
2 4 5.01261e-005 -5.98972e-005
2 5 -1.94973e-005 -0.00011208
2 6 5.2875e-005 -0.000150682
2 7 -1.09442e-005 -0.000207326
2 8 4.84544e-005 -0.000274975
2 9 -3.21254e-006 -0.000329085
2 10 5.01076e-005 -0.000381569
2 11 -4.2167e-006 -0.000459217
2 12 4.97706e-005 -0.000524781
2 13 5.18451e-009 -0.000570868
2 14 4.28059e-005 -0.000629976
2 15 -4.53414e-006 -0.000697568
2 16 4.07291e-005 -0.000725463
2 17 -1.45488e-005 -0.00074228
2 18 2.5954e-005 -0.000773089
2 19 -2.50135e-005 -0.000772598
2 20 1.09432e-005 -0.000718037
2 21 -5.08774e-005 -0.000670204
2 22 -7.20397e-006 -0.000610354
2 23 -7.29102e-005 -0.000478355
2 24 -3.73471e-005 -0.000311475
2 25 -0.000102424 -0.000162983
2 26 -5.28655e-005 4.40033e-005
2 27 -0.00013721 0.000325953
2 28 -8.25574e-005 0.000591468
2 29 -0.000149733 0.000852894
2 30 -9.3513e-005 0.00120752
2 31 -0.000189156 0.00157842
2 32 -9.36573e-005 0.00188561
2 33 -0.000174696 0.00223314
2 34 -0.000109036 0.00265713
2 35 -0.000199014 0.00300044
2 36 -5.75612e-005 0.00328624
2 37 -0.000179333 0.00366065
2 38 -8.56373e-005 0.00402515
2 39 -0.000158934 0.00423946
2 40 3.26354e-006 0.00447804
2 41 -0.000177889 0.00480217
2 42 -1.67892e-005 0.00498614
2 43 -9.43964e-005 0.00505446
2 44 5.00319e-005 0.00525883
2 45 -0.000170626 0.00543987
2 46 9.26279e-005 0.0053957
2 47 -5.54021e-005 0.00540064
2 48 6.69861e-005 0.00556522
2 49 -0.000136465 0.00551341
2 50 0.000211686 0.00531742
2 51 -8.64751e-005 0.00536988
2 52 8.79938e-005 0.00541092
2 53 -6.5587e-005 0.00511014
2 54 0.000281396 0.00494755
2 55 -0.000181474 0.00506121
2 56 0.00017362 0.00484727
2 57 -2.07327e-006 0.00443668
2 58 0.000258264 0.00447973
2 59 -0.000267203 0.00449877
2 60 0.000342419 0.00399356
2 61 -3.40037e-005 0.00374785
2 62 0.000177004 0.00398036
2 63 -0.000259454 0.00367019
2 64 0.000525896 0.00307215
2 65 -0.000217511 0.00322257
2 66 0.000153884 0.00336523
2 67 -0.00015188 0.00264723
2 68 0.0006062 0.00235748
2 69 -0.000506064 0.00285502
2 70 0.000306416 0.00251691
2 71 -4.63863e-005 0.00166314
2 72 0.000505879 0.00203818
2 73 -0.000761213 0.00246156
2 74 0.000668348 0.00146445
2 75 -0.000104715 0.00105577
2 76 0.000249927 0.0020927
2 77 -0.000826156 0.00182875
2 78 0.00117307 0.000479839
2 79 -0.000491146 0.00112056
2 80 -2.79666e-005 0.00228456
2 81 -0.000564067 0.000904479
2 82 0.00164938 4.62745e-005
2 83 -0.00136521 0.00202049
2 84 -5.46488e-005 0.00229652
2 85 0.000185667 -6.99389e-005
2 86 0.00163573 0.000881954
2 87 -0.00286465 0.0038911
2 88 0.000835293 0.0019755
2 89 0.00159849 -0.000311247
2 90 -0.000385195 0.00440056
2 91 -0.00495386 0.00731847
2 92 0.00465515 0.00190348
2 93 0.00473032 0.00173925
2 94 -0.00820712 0.013843
2 95 -0.00914335 0.017061
2 96 0.0155767 0.0126942
2 97 -0.0180418 0.0399313
2 98 -0.0253716 0.0349472
2 99 0.0907242 0.000710886
2 100 0.1 0
3 0 0 0
3 1 -2.35233e-005 2.70537e-006
3 2 2.79733e-005 3.79266e-006
3 3 4.46212e-005 -4.46923e-005
3 4 9.05239e-005 -0.000104349
3 5 6.8276e-005 -0.000179152
3 6 0.000106079 -0.000257389
3 7 9.77075e-005 -0.000353459
3 8 0.000119253 -0.000453551
3 9 0.000100237 -0.000555459
3 10 0.000131446 -0.000660012
3 11 0.000113324 -0.000773183
3 12 0.000119727 -0.000871975
3 13 0.000101989 -0.000968138
3 14 0.000118029 -0.0010632
3 15 7.73594e-005 -0.00114137
3 16 6.86394e-005 -0.00118868
3 17 4.02395e-005 -0.00122738
3 18 2.46424e-005 -0.00123934
3 19 -4.59182e-005 -0.00120197
3 20 -6.60044e-005 -0.00112693
3 21 -0.00011798 -0.00102704
3 22 -0.000169777 -0.000863644
3 23 -0.000256636 -0.000637355
3 24 -0.00027521 -0.000379858
3 25 -0.000352819 -7.41991e-005
3 26 -0.000418367 0.000313654
3 27 -0.000487338 0.000740325
3 28 -0.000487596 0.00118388
3 29 -0.000577923 0.00169343
3 30 -0.000612718 0.00226037
3 31 -0.000631653 0.00281125
3 32 -0.000607502 0.00337332
3 33 -0.00068985 0.00399911
3 34 -0.000652863 0.00461115
3 35 -0.000621263 0.00515981
3 36 -0.000584526 0.00573613
3 37 -0.000639573 0.00633656
3 38 -0.000516903 0.00683729
3 39 -0.00047505 0.00728178
3 40 -0.00044399 0.00777505
3 41 -0.000452539 0.00820922
3 42 -0.000265964 0.00850172
3 43 -0.000278382 0.0088086
3 44 -0.000245344 0.00914154
3 45 -0.000190664 0.0093193
3 46 -3.49539e-006 0.00941032
3 47 -0.000115498 0.00959368
3 48 -2.31313e-005 0.00970077
3 49 7.47893e-005 0.0096215
3 50 0.000174188 0.0096021
3 51 -5.69118e-006 0.00965976
3 52 0.000218666 0.00950069
3 53 0.000260475 0.00927103
3 54 0.000229903 0.00923471
3 55 0.000105373 0.00910694
3 56 0.000453158 0.00872188
3 57 0.000289307 0.00851657
3 58 0.000226013 0.00845664
3 59 0.000275626 0.00807052
3 60 0.000590932 0.00762937
3 61 0.000161273 0.00757325
3 62 0.000294578 0.00734715
3 63 0.000465585 0.00674084
3 64 0.000536141 0.00649736
3 65 5.85085e-006 0.00652271
3 66 0.00051476 0.00596146
3 67 0.000522488 0.00538326
3 68 0.000310276 0.00549523
3 69 9.75804e-006 0.00530987
3 70 0.00080127 0.00443977
3 71 0.000306015 0.00428242
3 72 9.73916e-005 0.00459264
3 73 0.000247868 0.00386463
3 74 0.00094176 0.00307227
3 75 -0.000154405 0.00360222
3 76 0.000122329 0.00357713
3 77 0.000590579 0.00227549
3 78 0.000761971 0.00224184
3 79 -0.000645542 0.00325056
3 80 0.000480902 0.00220988
3 81 0.000784699 0.000908605
3 82 0.00021943 0.00228335
3 83 -0.000918251 0.00284976
3 84 0.00114323 0.00043325
3 85 0.000531621 0.000485975
3 86 -0.000748375 0.00335499
3 87 -0.000794954 0.00175026
3 88 0.00218996 -0.00143696
3 89 -0.000800822 0.00233008
3 90 -0.00273022 0.00522272
3 91 -0.000251183 -0.00123163
3 92 0.00457427 -0.00226368
3 93 -0.00337423 0.00959489
3 94 -0.0100583 0.00764742
3 95 -0.00389863 -0.00598105
3 96 -0.00643559 0.0140097
3 97 -0.0352042 0.0264719
3 98 0.0095999 0.011983
3 99 0.10145 -0.000104152
3 100 0.1 0
4 0 0 0
4 1 -2.42248e-006 2.93047e-007
4 2 5.19118e-005 -5.17033e-005
4 3 9.7749e-005 -9.51292e-005
4 4 0.000139878 -0.00014143
4 5 0.000175705 -0.000235535
4 6 0.000183036 -0.000354424
4 7 0.000207233 -0.000466683
4 8 0.00021221 -0.000569915
4 9 0.000224556 -0.000705205
4 10 0.000220301 -0.000833614
4 11 0.00022691 -0.000939109
4 12 0.000208803 -0.00104803
4 13 0.000199932 -0.0011682
4 14 0.000169368 -0.00124134
4 15 0.000140118 -0.00128649
4 16 8.68924e-005 -0.00133452
4 17 3.88127e-005 -0.0013441
4 18 -3.83374e-005 -0.00127566
4 19 -0.000112771 -0.00118783
4 20 -0.000207601 -0.00107621
4 21 -0.000300733 -0.000869831
4 22 -0.000419336 -0.000591377
4 23 -0.000520992 -0.000307174
4 24 -0.000639969 4.73141e-005
4 25 -0.000752224 0.00051696
4 26 -0.000872431 0.0010063
4 27 -0.000957597 0.00150094
4 28 -0.0010618 0.0021061
4 29 -0.0011444 0.00277989
4 30 -0.00121255 0.00340192
4 31 -0.00123787 0.00405688
4 32 -0.00129364 0.00482141
4 33 -0.00130453 0.00555035
4 34 -0.00128848 0.00618935
4 35 -0.00124532 0.00690976
4 36 -0.00124498 0.00767293
4 37 -0.00116841 0.00828996
4 38 -0.00108311 0.0088555
4 39 -0.00100208 0.00953452
4 40 -0.000953996 0.0101238
4 41 -0.000805116 0.0105254
4 42 -0.000704763 0.0109881
4 43 -0.000620879 0.0115162
4 44 -0.000531719 0.0118054
4 45 -0.000353434 0.0120028
4 46 -0.000298185 0.0123662
4 47 -0.000213507 0.012625
4 48 -9.08455e-005 0.0125949
4 49 5.29646e-005 0.0126974
4 50 3.90286e-005 0.0129209
4 51 0.000160744 0.0128174
4 52 0.000280201 0.0125987
4 53 0.000330087 0.0127099
4 54 0.000289977 0.0126648
4 55 0.000479461 0.0122318
4 56 0.000512932 0.0120592
4 57 0.000469471 0.0121356
4 58 0.000495299 0.0116881
4 59 0.000708914 0.0111664
4 60 0.000572234 0.0112005
4 61 0.000543031 0.0110114
4 62 0.000684733 0.0102194
4 63 0.000785231 0.00997283
4 64 0.000497836 0.0100885
4 65 0.000654468 0.00940018
4 66 0.000810834 0.0086384
4 67 0.000664938 0.00886244
4 68 0.000417826 0.00863887
4 69 0.000839174 0.00753811
4 70 0.000756927 0.00733672
4 71 0.00040978 0.00776653
4 72 0.000474083 0.0068107
4 73 0.000992958 0.00586451
4 74 0.000438464 0.00647768
4 75 0.000205579 0.00641972
4 76 0.000697867 0.0048355
4 77 0.000903298 0.00484547
4 78 -8.9259e-005 0.00586499
4 79 0.00026888 0.00466755
4 80 0.000941644 0.00327638
4 81 0.000339821 0.00472369
4 82 -0.000623879 0.00510122
4 83 0.000739639 0.00278697
4 84 0.000870765 0.00291212
4 85 -0.000912626 0.00542006
4 86 -0.000839656 0.00393484
4 87 0.00160851 0.00161838
4 88 -0.000148255 0.00466108
4 89 -0.00302696 0.00658436
4 90 -0.00012121 0.0023819
4 91 0.00204119 0.00252942
4 92 -0.0033424 0.00977232
4 93 -0.00498499 0.00824018
4 94 -0.000592966 0.00234239
4 95 -0.00993295 0.0120977
4 96 -0.0161859 0.0117454
4 97 -0.00948939 -0.00980711
4 98 0.0101868 -0.0178023
4 99 0.0930849 -0.0011251
4 100 0.1 0
5 0 0 0
5 1 -4.0105e-006 5.33604e-006
5 2 0.000105672 6.49334e-006
5 3 0.00017113 -7.90275e-005
5 4 0.000230647 -0.00018017
5 5 0.000286321 -0.000286702
5 6 0.000309784 -0.000396042
5 7 0.000331814 -0.000527322
5 8 0.000347387 -0.000662035
5 9 0.000365646 -0.000800302
5 10 0.00035026 -0.000926268
5 11 0.000347289 -0.00105335
5 12 0.000330149 -0.00116732
5 13 0.00029741 -0.00126086
5 14 0.000233893 -0.0013248
5 15 0.000185535 -0.00137013
5 16 0.000102577 -0.00137276
5 17 -5.28072e-006 -0.00132486
5 18 -0.00012803 -0.00123248
5 19 -0.00024086 -0.00109434
5 20 -0.000404348 -0.000881235
5 21 -0.000575169 -0.00060288
5 22 -0.000737661 -0.000274158
5 23 -0.000900385 0.000125559
5 24 -0.00110811 0.000610935
5 25 -0.00128064 0.00114749
5 26 -0.00142969 0.00172908
5 27 -0.00158997 0.00238959
5 28 -0.00176319 0.00310941
5 29 -0.00185539 0.00384086
5 30 -0.00193573 0.0046039
5 31 -0.00203262 0.00542897
5 32 -0.00209426 0.00625382
5 33 -0.0020593 0.00704652
5 34 -0.00205413 0.00786072
5 35 -0.00205127 0.00869569
5 36 -0.00197365 0.00946075
5 37 -0.00183365 0.0101796
5 38 -0.00177067 0.0109159
5 39 -0.00166621 0.0116103
5 40 -0.00148125 0.0121923
5 41 -0.00130863 0.0127588
5 42 -0.00122577 0.0133232
5 43 -0.00103446 0.0137776
5 44 -0.000816311 0.0141375
5 45 -0.000686059 0.0145309
5 46 -0.000588557 0.0148601
5 47 -0.000336529 0.0150459
5 48 -0.000179076 0.0152201
5 49 -0.000115398 0.0154333
5 50 2.86105e-005 0.0154884
5 51 0.00028051 0.0154552
5 52 0.000302551 0.0155057
5 53 0.000356086 0.0155057
5 54 0.000563638 0.015297
5 55 0.00071087 0.0151571
5 56 0.000603673 0.0151038
5 57 0.000753993 0.0148435
5 58 0.000954802 0.0144706
5 59 0.000907229 0.0143371
5 60 0.000797348 0.0141151
5 61 0.00109767 0.0136072
5 62 0.00112463 0.0132548
5 63 0.000919726 0.0131382
5 64 0.000994103 0.0126384
5 65 0.0013285 0.0120403
5 66 0.00103664 0.0118752
5 67 0.000901573 0.0116195
5 68 0.0012302 0.0108263
5 69 0.00132157 0.0104318
5 70 0.000780899 0.0104303
5 71 0.00102114 0.00979509
5 72 0.00138487 0.00893252
5 73 0.00100342 0.00900046
5 74 0.000583014 0.00884828
5 75 0.00130588 0.00774902
5 76 0.00122777 0.00728579
5 77 0.000478673 0.00776483
5 78 0.000669989 0.00697978
5 79 0.0015371 0.00574641
5 80 0.000586343 0.00618509
5 81 1.12279e-005 0.00652042
5 82 0.00106632 0.00479259
5 83 0.00128909 0.00428213
5 84 -0.000524688 0.00578644
5 85 -0.000162561 0.00497159
5 86 0.00148372 0.00258484
5 87 2.92854e-005 0.00409914
5 88 -0.00201082 0.00601466
5 89 2.3738e-005 0.00297983
5 90 0.00120938 0.0015146
5 91 -0.00287694 0.00621726
5 92 -0.00467555 0.00605514
5 93 -5.9712e-005 0.00207965
5 94 -0.00426601 0.00733327
5 95 -0.0147738 0.00661535
5 96 -0.000415341 -0.00313122
5 97 -0.00919101 0.000710155
5 98 0.0032347 0.00779372
5 99 0.0872727 0.00125259
5 100 0.1 0
6 0 0 0
6 1 -5.55083e-006 2.94241e-007
6 2 0.000150136 -4.0077e-005
6 3 0.000253477 -9.74415e-005
6 4 0.000336966 -0.000191013
6 5 0.000384893 -0.000310455
6 6 0.000435579 -0.000424472
6 7 0.000461119 -0.00056442
6 8 0.000475915 -0.000703625
6 9 0.000479273 -0.00082451
6 10 0.000475745 -0.000938326
6 11 0.000450503 -0.00106515
6 12 0.000409001 -0.00115121
6 13 0.000350981 -0.0011993
6 14 0.000274087 -0.00123807
6 15 0.000167911 -0.00124618
6 16 3.954e-005 -0.00117254
6 17 -0.000107628 -0.00105921
6 18 -0.000278579 -0.000917687
6 19 -0.000480141 -0.000689247
6 20 -0.000693493 -0.000367856
6 21 -0.000916685 -1.94232e-005
6 22 -0.00115667 0.000392545
6 23 -0.00141182 0.000924602
6 24 -0.00165005 0.00151353
6 25 -0.00188247 0.00211557
6 26 -0.00211339 0.00281631
6 27 -0.00233105 0.0036137
6 28 -0.00249919 0.00439535
6 29 -0.00265022 0.00519168
6 30 -0.00278079 0.00609467
6 31 -0.00287463 0.00700861
6 32 -0.00289939 0.00784089
6 33 -0.00291353 0.00871339
6 34 -0.00290037 0.00965204
6 35 -0.00283964 0.0104909
6 36 -0.00271615 0.0112409
6 37 -0.00261198 0.0120675
6 38 -0.00247305 0.0128663
6 39 -0.00228881 0.0134908
6 40 -0.00207913 0.0140994
6 41 -0.00191727 0.0147865
6 42 -0.00169584 0.0153174
6 43 -0.00145689 0.0156986
6 44 -0.00124298 0.0161753
6 45 -0.001068 0.0166408
6 46 -0.000804786 0.0168549
6 47 -0.000590818 0.0170677
6 48 -0.000422805 0.0174191
6 49 -0.000239059 0.0175803
6 50 1.98061e-005 0.0175344
6 51 0.000142664 0.0176888
6 52 0.000276127 0.0178479
6 53 0.000476695 0.0176701
6 54 0.000663663 0.0175253
6 55 0.000679164 0.0176556
6 56 0.000838326 0.0174932
6 57 0.00102286 0.0170786
6 58 0.0010712 0.0170154
6 59 0.00104397 0.0169983
6 60 0.00127537 0.0164514
6 61 0.00134663 0.0160628
6 62 0.0012585 0.0161151
6 63 0.00131058 0.0157234
6 64 0.00156754 0.0149609
6 65 0.00141752 0.014875
6 66 0.00132039 0.0148069
6 67 0.00153208 0.0139385
6 68 0.00165021 0.0133817
6 69 0.00127854 0.0136076
6 70 0.00138895 0.0130199
6 71 0.00167669 0.0119567
6 72 0.00146258 0.0120188
6 73 0.00106855 0.0121136
6 74 0.00154436 0.0108268
6 75 0.00161337 0.0102447
6 76 0.00102398 0.0108834
6 77 0.000969097 0.0101584
6 78 0.0017226 0.00862366
6 79 0.00115447 0.00918065
6 80 0.000467414 0.00963005
6 81 0.00109125 0.00777411
6 82 0.00164933 0.00711833
6 83 0.000108859 0.00877463
6 84 2.658e-005 0.00784249
6 85 0.00134702 0.00559374
6 86 0.000733122 0.00710231
6 87 -0.00164955 0.00863012
6 88 7.79408e-005 0.00558892
6 89 0.00107804 0.00498068
6 90 -0.00233646 0.00910327
6 91 -0.00367542 0.00853689
6 92 0.000427632 0.00448895
6 93 -0.00420861 0.00819678
6 94 -0.00907891 0.011709
6 95 -0.00506937 0.00733984
6 96 0.000570057 0.00945325
6 97 -0.0148679 0.0125165
6 98 0.0101858 0.00199713
6 99 0.093733 -0.000496767
6 100 0.1 0
7 0 0 0
7 1 8.777e-006 4.54502e-006
7 2 0.000199168 -4.76662e-006
7 3 0.000343975 -9.63369e-005
7 4 0.000452995 -0.000196425
7 5 0.000510272 -0.000317163
7 6 0.000566784 -0.000443389
7 7 0.000599751 -0.000574593
7 8 0.000611827 -0.000695921
7 9 0.000602755 -0.000825342
7 10 0.000592761 -0.000937049
7 11 0.00054826 -0.00102298
7 12 0.000475102 -0.00108197
7 13 0.000386886 -0.00112419
7 14 0.000276811 -0.00111375
7 15 0.000115785 -0.00104984
7 16 -6.70663e-005 -0.000943715
7 17 -0.000265559 -0.000785259
7 18 -0.000503751 -0.000538969
7 19 -0.000784489 -0.00022711
7 20 -0.00106148 0.000139688
7 21 -0.001355 0.000593954
7 22 -0.00168226 0.0011464
7 23 -0.0020127 0.00175209
7 24 -0.00230542 0.00241954
7 25 -0.00261221 0.00318574
7 26 -0.0029183 0.0040181
7 27 -0.00317252 0.00486925
7 28 -0.00336736 0.00577337
7 29 -0.00357659 0.00674695
7 30 -0.00373388 0.00771992
7 31 -0.00380281 0.00867046
7 32 -0.00382784 0.00965174
7 33 -0.00386877 0.0106436
7 34 -0.00381162 0.0115652
7 35 -0.00368325 0.0124463
7 36 -0.00355507 0.0133358
7 37 -0.00343192 0.0141689
7 38 -0.00319 0.0148967
7 39 -0.00294647 0.0156049
7 40 -0.00273622 0.0162936
7 41 -0.00249823 0.0168706
7 42 -0.00216083 0.0173648
7 43 -0.00191305 0.017876
7 44 -0.00167619 0.0183152
7 45 -0.00137574 0.0186256
7 46 -0.00104727 0.0189264
7 47 -0.000867182 0.0192456
7 48 -0.000608399 0.0194214
7 49 -0.000302097 0.0195218
7 50 -7.01518e-005 0.0196893
7 51 4.6023e-005 0.0198012
7 52 0.000345318 0.0197339
7 53 0.000575708 0.0197193
7 54 0.000678447 0.0197707
7 55 0.000800029 0.0196402
7 56 0.00111814 0.019408
7 57 0.00118056 0.019362
7 58 0.00121422 0.019241
7 59 0.00141062 0.0188708
7 60 0.00164525 0.0186099
7 61 0.00150964 0.0185356
7 62 0.00161757 0.0181492
7 63 0.00186037 0.0176505
7 64 0.00187328 0.0174871
7 65 0.00165247 0.0172659
7 66 0.00196135 0.0165945
7 67 0.0020703 0.0161888
7 68 0.00182643 0.0161141
7 69 0.00176437 0.0155657
7 70 0.00222488 0.0147771
7 71 0.00195388 0.0146697
7 72 0.00165966 0.0144603
7 73 0.00195935 0.0135187
7 74 0.0022591 0.0129643
7 75 0.00152948 0.0131369
7 76 0.00161035 0.0124454
7 77 0.00216151 0.0113395
7 78 0.00186057 0.0113716
7 79 0.000985659 0.0114551
7 80 0.00181584 0.0100791
7 81 0.00201507 0.00936416
7 82 0.000920292 0.0100472
7 83 0.000588974 0.0094264
7 84 0.00206011 0.00761145
7 85 0.000952828 0.00802523
7 86 -0.000491465 0.00886087
7 87 0.000396354 0.00698725
7 88 0.00154639 0.00576362
7 89 -0.00157621 0.00789456
7 90 -0.00242313 0.00738297
7 91 -0.000508652 0.00444718
7 92 -0.00159961 0.00657506
7 93 -0.00774088 0.00866492
7 94 -0.00410505 0.00412876
7 95 -0.00675639 0.00389359
7 96 -0.0113317 0.0101601
7 97 -0.00989083 0.0137715
7 98 0.0201979 0.00851254
7 99 0.0963058 -0.000159711
7 100 0.1 0
8 0 0 0
8 1 6.53484e-006 1.69094e-006
8 2 0.000253835 -4.07675e-005
8 3 0.000426313 -0.000110707
8 4 0.000548753 -0.000188052
8 5 0.000636656 -0.000306772
8 6 0.00068619 -0.000435535
8 7 0.000712771 -0.000555264
8 8 0.000725337 -0.00065826
8 9 0.000711766 -0.00077281
8 10 0.000664323 -0.000857281
8 11 0.00059831 -0.000903881
8 12 0.000504925 -0.000928151
8 13 0.00037081 -0.000928229
8 14 0.000196332 -0.000853265
8 15 -1.66005e-007 -0.000724725
8 16 -0.000237457 -0.000558305
8 17 -0.000521823 -0.000316381
8 18 -0.000835216 2.75549e-005
8 19 -0.00116372 0.000424063
8 20 -0.00153088 0.000885842
8 21 -0.00192579 0.00146395
8 22 -0.00231397 0.00213146
8 23 -0.00269767 0.00283671
8 24 -0.00309498 0.00363179
8 25 -0.00347435 0.00453815
8 26 -0.00380006 0.00547188
8 27 -0.00409851 0.00641966
8 28 -0.00437214 0.00745689
8 29 -0.00458268 0.00853673
8 30 -0.00471165 0.00955821
8 31 -0.00480462 0.0105817
8 32 -0.00484935 0.0116612
8 33 -0.00481692 0.0126799
8 34 -0.00470968 0.0135909
8 35 -0.00458637 0.0145211
8 36 -0.00441349 0.0154451
8 37 -0.00417655 0.0162234
8 38 -0.00390423 0.0169227
8 39 -0.00364817 0.0176673
8 40 -0.00333916 0.0183174
8 41 -0.00299963 0.0188051
8 42 -0.00267686 0.0193061
8 43 -0.00237775 0.019831
8 44 -0.00201369 0.0201721
8 45 -0.00167741 0.020433
8 46 -0.00138755 0.0207899
8 47 -0.00108618 0.0210657
8 48 -0.000729635 0.0211368
8 49 -0.000475467 0.021287
8 50 -0.000234605 0.0215062
8 51 6.39137e-005 0.0215045
8 52 0.000350029 0.0214185
8 53 0.000492737 0.0215398
8 54 0.000726327 0.021548
8 55 0.000999202 0.021301
8 56 0.00115336 0.0212102
8 57 0.00122632 0.0212684
8 58 0.00149757 0.0209768
8 59 0.00166903 0.0206334
8 60 0.00167855 0.0206272
8 61 0.00178077 0.0204636
8 62 0.0020646 0.0199017
8 63 0.00203909 0.0196848
8 64 0.00199272 0.0196702
8 65 0.00220417 0.0191261
8 66 0.00237599 0.0185334
8 67 0.00213439 0.0185643
8 68 0.00220676 0.0182569
8 69 0.00248438 0.0173911
8 70 0.00238612 0.0171266
8 71 0.00207026 0.0172197
8 72 0.0024062 0.0163521
8 73 0.00253889 0.0155739
8 74 0.00212142 0.0158067
8 75 0.00201217 0.0154596
8 76 0.00256953 0.0141402
8 77 0.00225024 0.014045
8 78 0.00170093 0.0144082
8 79 0.00206313 0.0131606
8 80 0.00251098 0.0121019
8 81 0.00149688 0.0129563
8 82 0.0012797 0.0125331
8 83 0.00213078 0.0105912
8 84 0.00181065 0.0108663
8 85 0.000150297 0.0120152
8 86 0.00100862 0.0099785
8 87 0.00170301 0.00866419
8 88 -0.000396949 0.0107713
8 89 -0.00168764 0.0106453
8 90 0.00090355 0.00753613
8 91 -0.00146502 0.00873229
8 92 -0.00502624 0.0109105
8 93 -0.00340443 0.00795613
8 94 -0.0014287 0.00655494
8 95 -0.0110613 0.00950446
8 96 -0.0106956 0.00636321
8 97 -0.00250747 0.000555993
8 98 0.0225197 -0.00511535
8 99 0.0966083 -0.00102213
8 100 0.1 0
9 0 0 0
9 1 1.16183e-005 3.68172e-006
9 2 0.000306891 -4.94829e-006
9 3 0.000518077 -8.59536e-005
9 4 0.000654002 -0.000190501
9 5 0.000757229 -0.000303166
9 6 0.000806663 -0.000401624
9 7 0.000830169 -0.000517675
9 8 0.000827574 -0.000622145
9 9 0.00080088 -0.000699956
9 10 0.000724859 -0.000748536
9 11 0.000628289 -0.00078755
9 12 0.000493488 -0.000772919
9 13 0.000313243 -0.000699578
9 14 8.10284e-005 -0.000584242
9 15 -0.000174378 -0.000420042
9 16 -0.000485086 -0.000157581
9 17 -0.000844495 0.000180206
9 18 -0.00123753 0.000575208
9 19 -0.00165001 0.00106673
9 20 -0.00211194 0.00167883
9 21 -0.00259042 0.00235737
9 22 -0.00306157 0.00310685
9 23 -0.0035318 0.00397709
9 24 -0.00401146 0.00493695
9 25 -0.0044462 0.00592309
9 26 -0.00482274 0.00697237
9 27 -0.00517317 0.00810867
9 28 -0.00547871 0.00925012
9 29 -0.00568087 0.0103629
9 30 -0.00580682 0.0115068
9 31 -0.00590327 0.0126607
9 32 -0.00591289 0.0137307
9 33 -0.00581184 0.0147438
9 34 -0.00567159 0.0157572
9 35 -0.00551098 0.0167018
9 36 -0.00525016 0.0175214
9 37 -0.00493159 0.0183066
9 38 -0.00462903 0.0190655
9 39 -0.00430121 0.0197008
9 40 -0.00388982 0.0202386
9 41 -0.00350306 0.0207881
9 42 -0.00315221 0.0212666
9 43 -0.00275139 0.021609
9 44 -0.00231941 0.0219343
9 45 -0.00197814 0.0222848
9 46 -0.00163073 0.0224993
9 47 -0.00122473 0.0226305
9 48 -0.000870832 0.0228292
9 49 -0.000608281 0.0229917
9 50 -0.000263133 0.022979
9 51 8.49564e-005 0.0230053
9 52 0.000313316 0.0231122
9 53 0.000536352 0.0230632
9 54 0.000875752 0.0228979
9 55 0.00109694 0.0229055
9 56 0.00122302 0.0228756
9 57 0.00146801 0.0226084
9 58 0.00174468 0.022409
9 59 0.00179965 0.0224065
9 60 0.00191591 0.022146
9 61 0.00219239 0.0217392
9 62 0.00230477 0.0216167
9 63 0.00224436 0.0214979
9 64 0.00245741 0.0209618
9 65 0.00266752 0.0205938
9 66 0.00255409 0.0205485
9 67 0.00253911 0.0201395
9 68 0.00286199 0.0194421
9 69 0.00282766 0.0192952
9 70 0.00258241 0.0191418
9 71 0.00279761 0.0183557
9 72 0.00305466 0.0177851
9 73 0.00266277 0.0178631
9 74 0.00257218 0.0173002
9 75 0.00303366 0.01631
9 76 0.00289243 0.0161636
9 77 0.00229159 0.016167
9 78 0.00268803 0.0150221
9 79 0.00304468 0.0142782
9 80 0.00225853 0.0145806
9 81 0.00193217 0.0140128
9 82 0.00284304 0.0125038
9 83 0.00237712 0.0125202
9 84 0.00117391 0.0128277
9 85 0.00167537 0.0113199
9 86 0.00239922 0.01016
9 87 0.000501759 0.0112044
9 88 -0.000260892 0.0105631
9 89 0.000942359 0.00825522
9 90 8.19613e-005 0.00883075
9 91 -0.00326808 0.0101392
9 92 -0.00200998 0.00704886
9 93 -0.002296 0.00597522
9 94 -0.00631703 0.00892582
9 95 -0.00708871 0.00697461
9 96 -0.00493178 0.00075294
9 97 -0.00346233 0.00298869
9 98 0.0222376 0.00512857
9 99 0.0966298 -8.79149e-005
9 100 0.1 0
10 0 0 0
10 1 1.51807e-005 9.56119e-007
10 2 0.000347494 -2.78697e-005
10 3 0.000601951 -8.83155e-005
10 4 0.000752997 -0.00017182
10 5 0.000851392 -0.000273167
10 6 0.000903992 -0.00036313
10 7 0.000930546 -0.000462938
10 8 0.000898016 -0.000540616
10 9 0.000842934 -0.000589336
10 10 0.000749852 -0.000607235
10 11 0.000613935 -0.000603376
10 12 0.000413925 -0.000535621
10 13 0.000188202 -0.000410163
10 14 -9.36649e-005 -0.000233133
10 15 -0.000435913 1.26695e-005
10 16 -0.000835062 0.000360288
10 17 -0.00125664 0.000783667
10 18 -0.00174011 0.00128757
10 19 -0.00227094 0.00190489
10 20 -0.00281998 0.00263507
10 21 -0.00336822 0.00343923
10 22 -0.00394963 0.00433969
10 23 -0.00452201 0.00535622
10 24 -0.00504465 0.00643968
10 25 -0.00552619 0.00755644
10 26 -0.00598396 0.00874522
10 27 -0.00635987 0.00998623
10 28 -0.00663321 0.0111971
10 29 -0.00684174 0.0123856
10 30 -0.00698265 0.0135964
10 31 -0.00701143 0.0147621
10 32 -0.00694016 0.0158173
10 33 -0.00682004 0.0168331
10 34 -0.00663048 0.0178253
10 35 -0.00634976 0.0186959
10 36 -0.006017 0.01945
10 37 -0.00567637 0.0201935
10 38 -0.0052798 0.0208696
10 39 -0.0048372 0.0213991
10 40 -0.00440404 0.0218782
10 41 -0.00398579 0.0223709
10 42 -0.00351527 0.0227433
10 43 -0.00305634 0.0230105
10 44 -0.00264716 0.023314
10 45 -0.00223267 0.0235957
10 46 -0.00177543 0.0237224
10 47 -0.00139594 0.0238497
10 48 -0.00105332 0.024043
10 49 -0.000661133 0.0241221
10 50 -0.000277448 0.0240891
10 51 -1.57993e-005 0.024174
10 52 0.000287804 0.0242408
10 53 0.000647374 0.0241259
10 54 0.000903661 0.0240428
10 55 0.00107368 0.0241011
10 56 0.00138629 0.0239728
10 57 0.00166184 0.0237337
10 58 0.00176738 0.0236883
10 59 0.00192928 0.0236323
10 60 0.00224952 0.0232805
10 61 0.00235712 0.0230587
10 62 0.00236806 0.0230341
10 63 0.00260648 0.0227291
10 64 0.00284126 0.0222589
10 65 0.00274143 0.0221779
10 66 0.00280021 0.0220083
10 67 0.00310749 0.0214142
10 68 0.00311258 0.0210593
10 69 0.0029 0.0210727
10 70 0.00314916 0.0205307
10 71 0.00336882 0.019842
10 72 0.0030745 0.0197972
10 73 0.00298349 0.0196083
10 74 0.00341834 0.0186403
10 75 0.00330102 0.0182653
10 76 0.00284094 0.018419
10 77 0.00311042 0.0176352
10 78 0.00347979 0.0165987
10 79 0.00284051 0.0168631
10 80 0.00257372 0.0166568
10 81 0.00322934 0.0152096
10 82 0.00305066 0.0148357
10 83 0.00193554 0.0154904
10 84 0.0023627 0.014214
10 85 0.00297486 0.0128155
10 86 0.0015817 0.0136059
10 87 0.000565759 0.0135764
10 88 0.00211807 0.0112685
10 89 0.00116702 0.0112486
10 90 -0.00164687 0.012315
10 91 -0.000878437 0.0104939
10 92 0.000587143 0.00875169
10 93 -0.0043293 0.0100619
10 94 -0.00583482 0.00855383
10 95 -0.00146596 0.00667716
10 96 -0.00562188 0.00746795
10 97 -0.00320906 0.00595969
10 98 0.0270613 -0.000624197
10 99 0.0985417 -0.000944744
10 100 0.1 0
11 0 0 0
11 1 2.18763e-005 3.08603e-006
11 2 0.000394167 -1.09118e-005
11 3 0.000676663 -8.29212e-005
11 4 0.000844063 -0.000151928
11 5 0.000950839 -0.000242343
11 6 0.000994746 -0.000332465
11 7 0.00100725 -0.000404779
11 8 0.000956326 -0.000446308
11 9 0.000873603 -0.000486101
11 10 0.000737759 -0.00047984
11 11 0.000556989 -0.000412604
11 12 0.000306005 -0.000299006
11 13 1.48573e-005 -0.000144366
11 14 -0.000346164 0.00011125
11 15 -0.000765654 0.000456807
11 16 -0.0012507 0.000867382
11 17 -0.00177598 0.00137669
11 18 -0.00236718 0.00202943
11 19 -0.0029945 0.00277454
11 20 -0.00364835 0.00360136
11 21 -0.00430952 0.00456474
11 22 -0.00498478 0.00565118
11 23 -0.00562832 0.00678097
11 24 -0.00622302 0.00797499
11 25 -0.00676457 0.00926975
11 26 -0.00724749 0.0105845
11 27 -0.00762226 0.0118573
11 28 -0.00788968 0.0131448
11 29 -0.00807885 0.0144403
11 30 -0.00816759 0.015637