Title= "LBM Lid Driven Flow"
VARIABLES="X","Y","U","V"
ZONE T="BOX",I=101,J=101,F=POINT
0 0 0 0
0 1 0 0
0 2 0 0
0 3 0 0
0 4 0 0
0 5 0 0
0 6 0 0
0 7 0 0
0 8 0 0
0 9 0 0
0 10 0 0
0 11 0 0
0 12 0 0
0 13 0 0
0 14 0 0
0 15 0 0
0 16 0 0
0 17 0 0
0 18 0 0
0 19 0 0
0 20 0 0
0 21 0 0
0 22 0 0
0 23 0 0
0 24 0 0
0 25 0 0
0 26 0 0
0 27 0 0
0 28 0 0
0 29 0 0
0 30 0 0
0 31 0 0
0 32 0 0
0 33 0 0
0 34 0 0
0 35 0 0
0 36 0 0
0 37 0 0
0 38 0 0
0 39 0 0
0 40 0 0
0 41 0 0
0 42 0 0
0 43 0 0
0 44 0 0
0 45 0 0
0 46 0 0
0 47 0 0
0 48 0 0
0 49 0 0
0 50 0 0
0 51 0 0
0 52 0 0
0 53 0 0
0 54 0 0
0 55 0 0
0 56 0 0
0 57 0 0
0 58 0 0
0 59 0 0
0 60 0 0
0 61 0 0
0 62 0 0
0 63 0 0
0 64 0 0
0 65 0 0
0 66 0 0
0 67 0 0
0 68 0 0
0 69 0 0
0 70 0 0
0 71 0 0
0 72 0 0
0 73 0 0
0 74 0 0
0 75 0 0
0 76 0 0
0 77 0 0
0 78 0 0
0 79 0 0
0 80 0 0
0 81 0 0
0 82 0 0
0 83 0 0
0 84 0 0
0 85 0 0
0 86 0 0
0 87 0 0
0 88 0 0
0 89 0 0
0 90 0 0
0 91 0 0
0 92 0 0
0 93 0 0
0 94 0 0
0 95 0 0
0 96 0 0
0 97 0 0
0 98 0 0
0 99 0 0
0 100 0.1 0
1 0 0 0
1 1 -6.57606e-006 6.69097e-006
1 2 3.15112e-006 5.05369e-005
1 3 -3.61116e-006 2.17756e-005
1 4 2.98405e-007 1.13628e-005
1 5 -5.39231e-006 1.12394e-005
1 6 -2.42714e-007 5.71669e-006
1 7 -6.21616e-006 3.20254e-006
1 8 -9.01425e-007 8.986e-006
1 9 -5.37691e-006 -5.77393e-006
1 10 -1.73724e-006 -1.11712e-005
1 11 -5.71649e-006 -5.66633e-006
1 12 -1.76145e-007 -1.21571e-005
1 13 -4.36279e-006 -3.33159e-005
1 14 -4.42284e-007 -2.93837e-005
1 15 -2.05725e-006 -2.90884e-005
1 16 3.5466e-006 -5.30491e-005
1 17 -1.8379e-007 -6.71359e-005
1 18 6.09427e-006 -5.57985e-005
1 19 6.27431e-006 -7.20374e-005
1 20 1.19452e-005 -0.000100298
1 21 9.66517e-006 -9.17761e-005
1 22 1.9469e-005 -8.25424e-005
1 23 1.94288e-005 -0.000111905
1 24 2.55189e-005 -0.000115352
1 25 2.5417e-005 -7.96195e-005
1 26 3.74406e-005 -8.36871e-005
1 27 3.4104e-005 -0.000100867
1 28 4.16258e-005 -5.47617e-005
1 29 4.25484e-005 -1.21434e-005
1 30 5.29051e-005 -3.14747e-005
1 31 4.42754e-005 -1.53135e-006
1 32 5.48368e-005 8.20484e-005
1 33 5.28517e-005 9.12234e-005
1 34 5.79719e-005 7.60029e-005
1 35 4.55925e-005 0.000167749
1 36 6.00525e-005 0.000230774
1 37 4.97502e-005 0.000184096
1 38 5.05706e-005 0.00021378
1 39 3.89039e-005 0.000335446
1 40 5.53887e-005 0.000309334
1 41 3.2985e-005 0.000244208
1 42 3.65933e-005 0.000352889
1 43 2.86352e-005 0.000421434
1 44 4.16921e-005 0.000289782
1 45 8.95674e-006 0.000301755
1 46 2.58279e-005 0.000457038
1 47 1.70327e-005 0.000377042
1 48 2.14218e-005 0.000230875
1 49 -1.14063e-005 0.000395026
1 50 2.4229e-005 0.000461834
1 51 1.0607e-006 0.000227224
1 52 1.23671e-006 0.000240881
1 53 -1.7633e-005 0.000487731
1 54 2.76158e-005 0.000310887
1 55 -2.19662e-005 9.5555e-005
1 56 -6.10511e-006 0.000369399
1 57 -8.59727e-006 0.000455791
1 58 2.46905e-005 5.4724e-005
1 59 -4.4427e-005 0.000135297
1 60 1.08041e-005 0.000510634
1 61 2.40229e-006 0.000210052
1 62 1.13664e-005 -0.000116318
1 63 -4.85768e-005 0.000370234
1 64 4.8658e-005 0.00045859
1 65 -2.13748e-006 -0.000154217
1 66 1.80611e-006 -9.59924e-006
1 67 -2.19277e-005 0.000612541
1 68 8.75564e-005 0.000108032
1 69 -2.44966e-005 -0.000374892
1 70 2.0366e-005 0.000374299
1 71 2.86638e-005 0.000586914
1 72 0.000107757 -0.00041071
1 73 -4.56376e-005 -0.000210304
1 74 8.36465e-005 0.000796101
1 75 8.04034e-005 0.000135807
1 76 0.000107675 -0.000788352
1 77 -3.67351e-005 0.000391461
1 78 0.000192415 0.000893865
1 79 0.000110199 -0.000687579
1 80 0.000106265 -0.0006705
1 81 3.22161e-005 0.00123125
1 82 0.000335057 0.00028913
1 83 0.000107511 -0.00161893
1 84 0.000139236 0.000258337
1 85 0.000200997 0.00177427
1 86 0.00049091 -0.001407
1 87 7.82589e-005 -0.00205905
1 88 0.000281696 0.00216012
1 89 0.000544331 0.000701125
1 90 0.000608476 -0.00446598
1 91 4.58129e-005 -0.000222711
1 92 0.000740247 0.00467175
1 93 0.00123984 -0.00579107
1 94 0.00075775 -0.0110703
1 95 7.80753e-005 0.00672959
1 96 0.00249728 0.00295053
1 97 0.00227392 -0.0231872
1 98 -0.00299524 0.0342238
1 99 0.00731269 0.0123768
1 100 0.1 0
2 0 0 0
2 1 -5.66906e-005 -3.23845e-006
2 2 3.07823e-005 -2.70981e-005
2 3 -1.07424e-005 -1.67792e-005
2 4 4.67829e-005 -4.61552e-005
2 5 -1.53764e-005 -9.72666e-005
2 6 5.25637e-005 -0.00013926
2 7 -4.89302e-006 -0.000201388
2 8 5.00862e-005 -0.000276598
2 9 5.06764e-006 -0.000343072
2 10 5.48845e-005 -0.000411234
2 11 6.63665e-006 -0.000506986
2 12 5.73017e-005 -0.000595524
2 13 1.49626e-005 -0.000670405
2 14 5.46255e-005 -0.000760992
2 15 1.29173e-005 -0.000863755
2 16 5.59361e-005 -0.000932479
2 17 6.8169e-006 -0.000992621
2 18 4.26623e-005 -0.00106631
2 19 -3.88689e-006 -0.00111078
2 20 2.8828e-005 -0.00110134
2 21 -3.10508e-005 -0.00109296
2 22 5.56031e-006 -0.0010672
2 23 -5.78587e-005 -0.000965535
2 24 -2.91405e-005 -0.000818756
2 25 -9.71908e-005 -0.000677067
2 26 -5.56968e-005 -0.000467943
2 27 -0.000140407 -0.000172426
2 28 -9.62363e-005 0.000124795
2 29 -0.00016767 0.000431128
2 30 -0.000117922 0.000839897
2 31 -0.000216139 0.00128166
2 32 -0.000130447 0.00167501
2 33 -0.000211436 0.00211273
2 34 -0.000150429 0.00263613
2 35 -0.000243898 0.00309421
2 36 -0.000104976 0.00349458
2 37 -0.000220474 0.00397816
2 38 -0.000133359 0.00446311
2 39 -0.000207245 0.00480112
2 40 -3.64405e-005 0.00514506
2 41 -0.000212246 0.00557097
2 42 -6.17029e-005 0.00586706
2 43 -0.000128883 0.00603006
2 44 2.86423e-005 0.00630628
2 45 -0.000197832 0.00656717
2 46 6.03015e-005 0.00660006
2 47 -6.44344e-005 0.00664972
2 48 5.78556e-005 0.00685209
2 49 -0.000157128 0.00684902
2 50 0.000204363 0.00667787
2 51 -7.57242e-005 0.00673096
2 52 7.89733e-005 0.00678377
2 53 -6.79054e-005 0.0064889
2 54 0.000299781 0.00630294
2 55 -0.000171254 0.00639272
2 56 0.000169983 0.00616097
2 57 2.56548e-005 0.00571168
2 58 0.000279217 0.00570713
2 59 -0.000263493 0.0056841
2 60 0.000363826 0.00512467
2 61 7.27063e-006 0.00481855
2 62 0.000179471 0.00499589
2 63 -0.000240045 0.00461639
2 64 0.000567791 0.00394577
2 65 -0.000194203 0.00404078
2 66 0.000152092 0.00411288
2 67 -0.000105529 0.00330774
2 68 0.000633782 0.00296101
2 69 -0.000498663 0.00340549
2 70 0.000320707 0.00298035
2 71 -1.04258e-007 0.0020575
2 72 0.000508445 0.00239459
2 73 -0.00074314 0.00275442
2 74 0.000678684 0.00168701
2 75 -7.52806e-005 0.00123792
2 76 0.000255881 0.00223112
2 77 -0.000805379 0.00191632
2 78 0.00115298 0.000531449
2 79 -0.000446025 0.001126
2 80 -1.57401e-005 0.00225174
2 81 -0.000573001 0.000859282
2 82 0.00162673 -4.78045e-005
2 83 -0.00127581 0.00186816
2 84 -8.56361e-005 0.00215609
2 85 0.000160071 -0.000232638
2 86 0.00166883 0.000622599
2 87 -0.00276906 0.00362574
2 88 0.000732873 0.00173891
2 89 0.00160469 -0.00063225
2 90 -0.000345328 0.00404993
2 91 -0.00485337 0.00699927
2 92 0.00465656 0.00145481
2 93 0.00473065 0.00127784
2 94 -0.00837875 0.0135952
2 95 -0.0090628 0.0168464
2 96 0.0154399 0.012562
2 97 -0.0182215 0.0400134
2 98 -0.0252583 0.0350081
2 99 0.0908493 0.000701944
2 100 0.1 0
3 0 0 0
3 1 -2.40106e-005 2.83951e-006
3 2 2.0117e-005 1.09492e-005
3 3 3.67449e-005 -3.31888e-005
3 4 8.71294e-005 -9.12825e-005
3 5 7.44474e-005 -0.000169176
3 6 0.000115804 -0.000256519
3 7 0.000114373 -0.000367376
3 8 0.000140468 -0.000487394
3 9 0.000129433 -0.000615171
3 10 0.000164273 -0.000750383
3 11 0.000155595 -0.00089988
3 12 0.000168963 -0.00104217
3 13 0.000160078 -0.00118809
3 14 0.000181262 -0.00133751
3 15 0.00015045 -0.00147599
3 16 0.000146045 -0.00158836
3 17 0.000121393 -0.001693
3 18 0.000106074 -0.00177061
3 19 3.72859e-005 -0.00179827
3 20 1.01834e-005 -0.00178269
3 21 -4.97146e-005 -0.00173302
3 22 -0.000112326 -0.0016107
3 23 -0.000211911 -0.00141332
3 24 -0.000251881 -0.00116733
3 25 -0.000348549 -0.000856072
3 26 -0.00043546 -0.000445885
3 27 -0.00052885 2.40914e-005
3 28 -0.000556857 0.000532291
3 29 -0.000668169 0.00112395
3 30 -0.00072754 0.00179223
3 31 -0.000770775 0.00246455
3 32 -0.0007655 0.00316175
3 33 -0.000860865 0.00393509
3 34 -0.000844416 0.00471105
3 35 -0.000823009 0.00543163
3 36 -0.000785295 0.00617975
3 37 -0.000844099 0.0069603
3 38 -0.000732875 0.00764868
3 39 -0.00067822 0.00826982
3 40 -0.000630928 0.00893207
3 41 -0.000641356 0.00954267
3 42 -0.000451157 0.0100022
3 43 -0.000429706 0.0104511
3 44 -0.000383234 0.0109242
3 45 -0.000331261 0.0112435
3 46 -0.000118644 0.0114469
3 47 -0.000193265 0.0117215
3 48 -0.000105089 0.0119268
3 49 2.41357e-006 0.0119296
3 50 0.000143846 0.011956
3 51 -2.08055e-005 0.0120561
3 52 0.000191733 0.0119415
3 53 0.000269281 0.0117224
3 54 0.000269335 0.0116743
3 55 0.000132734 0.0115417
3 56 0.00049047 0.0111359
3 57 0.000371694 0.0108779
3 58 0.000301975 0.010761
3 59 0.000343688 0.0103167
3 60 0.00069529 0.00979464
3 61 0.000280496 0.00964203
3 62 0.000388066 0.00931658
3 63 0.000582538 0.0086022
3 64 0.000675843 0.00824218
3 65 0.000125899 0.00814039
3 66 0.000629865 0.0074426
3 67 0.000667988 0.00673408
3 68 0.000440015 0.00671731
3 69 0.000124428 0.00638215
3 70 0.000926579 0.00536671
3 71 0.000437897 0.00508872
3 72 0.000204839 0.00526757
3 73 0.000351629 0.00439183
3 74 0.00104089 0.00348165
3 75 -4.54911e-005 0.00390976
3 76 0.000210693 0.00376646
3 77 0.000656114 0.00235376
3 78 0.000831517 0.00223449
3 79 -0.000542055 0.00316071
3 80 0.000528769 0.00204286
3 81 0.000816316 0.000664985
3 82 0.000300223 0.00196792
3 83 -0.000829576 0.00248537
3 84 0.00113808 2.53773e-005
3 85 0.000581698 6.32012e-006
3 86 -0.000639929 0.00282502
3 87 -0.000732156 0.00118522
3 88 0.00215051 -0.00204464
3 89 -0.00077732 0.00170699
3 90 -0.0026323 0.00455364
3 91 -7.68044e-005 -0.0020207
3 92 0.00458398 -0.00301202
3 93 -0.00354468 0.00898102
3 94 -0.0101952 0.00698436
3 95 -0.00405496 -0.00650674
3 96 -0.00683772 0.0137878
3 97 -0.0353435 0.0262642
3 98 0.00964019 0.0118582
3 99 0.101594 -0.000108604
3 100 0.1 0
4 0 0 0
4 1 -5.14303e-006 -8.28194e-008
4 2 4.22651e-005 -5.18157e-005
4 3 8.93625e-005 -9.32902e-005
4 4 0.000144869 -0.00014484
4 5 0.000192349 -0.000251766
4 6 0.000212669 -0.000389139
4 7 0.000247401 -0.000527496
4 8 0.000264223 -0.000663014
4 9 0.000286896 -0.000834769
4 10 0.000295145 -0.00100558
4 11 0.000314499 -0.00116098
4 12 0.000310148 -0.00132361
4 13 0.000312803 -0.00150059
4 14 0.000294627 -0.00163611
4 15 0.00027481 -0.00174618
4 16 0.000227802 -0.0018562
4 17 0.000181009 -0.00192606
4 18 0.000102802 -0.00191579
4 19 2.00058e-005 -0.00187651
4 20 -8.88422e-005 -0.0018012
4 21 -0.000201521 -0.00162198
4 22 -0.000343871 -0.00135682
4 23 -0.000477156 -0.00106553
4 24 -0.0006309 -0.00068771
4 25 -0.000781146 -0.000180063
4 26 -0.000942208 0.000369412
4 27 -0.00107115 0.00094494
4 28 -0.00121698 0.00164392
4 29 -0.00134186 0.00242969
4 30 -0.00145063 0.00318502
4 31 -0.0015113 0.00398266
4 32 -0.00159788 0.00489893
4 33 -0.00164009 0.00579986
4 34 -0.00164725 0.00661877
4 35 -0.00161522 0.00751314
4 36 -0.00162523 0.00846213
4 37 -0.0015607 0.00928032
4 38 -0.00147221 0.0100321
4 39 -0.00137678 0.0108865
4 40 -0.00132307 0.0116706
4 41 -0.00116611 0.0122632
4 42 -0.00103741 0.0128834
4 43 -0.000926516 0.0135726
4 44 -0.000824822 0.0140405
4 45 -0.000619207 0.0143818
4 46 -0.000522203 0.0148608
4 47 -0.000414207 0.0152604
4 48 -0.000272552 0.0153617
4 49 -8.56102e-005 0.0155407
4 50 -6.23368e-005 0.0158457
4 51 7.45911e-005 0.0158466
4 52 0.000226621 0.0156804
4 53 0.000322488 0.0158078
4 54 0.000303237 0.0158145
4 55 0.000511299 0.015414
4 56 0.000589247 0.0152066
4 57 0.000575641 0.01526
4 58 0.000613061 0.0148105
4 59 0.000858111 0.0142216
4 60 0.000758047 0.0141582
4 61 0.000737461 0.0139073
4 62 0.000898776 0.013024
4 63 0.00102907 0.0126266
4 64 0.000752818 0.0126096
4 65 0.00091381 0.0117952
4 66 0.00109489 0.0108574
4 67 0.000952308 0.0108934
4 68 0.000701919 0.0105011
4 69 0.00113046 0.00920971
4 70 0.00105429 0.0088023
4 71 0.000690237 0.0090331
4 72 0.00075156 0.00787713
4 73 0.00125916 0.00673174
4 74 0.00069726 0.00715261
4 75 0.000448521 0.00689388
4 76 0.00092063 0.00513313
4 77 0.00110253 0.00498743
4 78 0.000120613 0.00583234
4 79 0.00044235 0.00447558
4 80 0.00108105 0.00298538
4 81 0.000493079 0.00431138
4 82 -0.000457474 0.00454813
4 83 0.000827908 0.00216367
4 84 0.000959738 0.00224773
4 85 -0.000770968 0.00464809
4 86 -0.000711135 0.00308575
4 87 0.00165452 0.000783677
4 88 -0.000101726 0.00381572
4 89 -0.00294263 0.005614
4 90 1.14004e-005 0.00136151
4 91 0.00211961 0.00167011
4 92 -0.00340939 0.00904198
4 93 -0.00510798 0.00740505
4 94 -0.00088877 0.00168657
4 95 -0.0103636 0.0117995
4 96 -0.0164536 0.0113375
4 97 -0.00975654 -0.0102382
4 98 0.0100494 -0.0179985
4 99 0.0930562 -0.00112742
4 100 0.1 0
5 0 0 0
5 1 -7.3954e-006 5.41607e-006
5 2 9.55307e-005 1.03201e-005
5 3 0.000168652 -8.1046e-005
5 4 0.000247466 -0.000193842
5 5 0.000321901 -0.000318049
5 6 0.000366032 -0.000451781
5 7 0.000405863 -0.00061506
5 8 0.00043762 -0.000787348
5 9 0.000472488 -0.000968191
5 10 0.000475904 -0.00114166
5 11 0.000489929 -0.00132018
5 12 0.000489268 -0.00148773
5 13 0.000472983 -0.0016371
5 14 0.000423299 -0.00175755
5 15 0.000382045 -0.00185654
5 16 0.000302534 -0.00190835
5 17 0.000192887 -0.00190431
5 18 5.92942e-005 -0.00184657
5 19 -7.35669e-005 -0.00173074
5 20 -0.000261869 -0.0015278
5 21 -0.000466158 -0.00124563
5 22 -0.000671768 -0.000895725
5 23 -0.000882662 -0.000458016
5 24 -0.00114141 8.11248e-005
5 25 -0.00137252 0.000689759
5 26 -0.00158264 0.00136122
5 27 -0.00180183 0.00212643
5 28 -0.00203487 0.00296713
5 29 -0.0021888 0.00383574
5 30 -0.00232156 0.00474645
5 31 -0.00246474 0.00572946
5 32 -0.00257434 0.00672656
5 33 -0.00258015 0.00769867
5 34 -0.00259606 0.0086912
5 35 -0.00261296 0.00971109
5 36 -0.00255777 0.0106704
5 37 -0.00242201 0.0115765
5 38 -0.0023446 0.0124909
5 39 -0.00223694 0.0133707
5 40 -0.0020455 0.0141373
5 41 -0.00184116 0.0148685
5 42 -0.0017238 0.0155923
5 43 -0.00151732 0.0162142
5 44 -0.00126563 0.0167256
5 45 -0.00108262 0.0172485
5 46 -0.000951229 0.0177144
5 47 -0.000674966 0.0180359
5 48 -0.000461257 0.0183158
5 49 -0.00034516 0.0186263
5 50 -0.000175976 0.0187913
5 51 0.000116901 0.0188452
5 52 0.000206 0.0189536
5 53 0.000295742 0.0190214
5 54 0.000530265 0.0188769
5 55 0.000738818 0.0187601
5 56 0.000689759 0.0187193
5 57 0.000860624 0.018482
5 58 0.00110571 0.0180993
5 59 0.00112572 0.017919
5 60 0.00104886 0.0176572
5 61 0.0013692 0.0170962
5 62 0.00145715 0.0166445
5 63 0.00129835 0.0164132
5 64 0.00138151 0.0158
5 65 0.00174769 0.0150537
5 66 0.0015082 0.0147099
5 67 0.00137921 0.0142711
5 68 0.00170927 0.0132811
5 69 0.00183261 0.0126628
5 70 0.00130548 0.0124264
5 71 0.00152295 0.0115489
5 72 0.00188709 0.0104397
5 73 0.00150966 0.0102537
5 74 0.00106773 0.0098392
5 75 0.00175591 0.00848523
5 76 0.00166189 0.00778996
5 77 0.000893838 0.00802691
5 78 0.00105394 0.00700175
5 79 0.00186494 0.00557304
5 80 0.000892692 0.00583879
5 81 0.000314758 0.00597575
5 82 0.00132565 0.00409233
5 83 0.00147186 0.00348828
5 84 -0.000329082 0.00487915
5 85 5.44303e-005 0.00392973
5 86 0.00163613 0.00150535
5 87 8.76117e-005 0.00302375
5 88 -0.00190075 0.00486478
5 89 0.000187029 0.00176138
5 90 0.00125373 0.000377309
5 91 -0.00297695 0.00518412
5 92 -0.00472606 0.00507589
5 93 -0.000264662 0.00125427
5 94 -0.00492063 0.00667571
5 95 -0.0152686 0.00605749
5 96 -0.000809802 -0.00328684
5 97 -0.00967713 0.000877888
5 98 0.00308514 0.00792861
5 99 0.0871669 0.00127568
5 100 0.1 0
6 0 0 0
6 1 -7.00858e-006 -1.73519e-007
6 2 0.000143512 -4.54789e-005
6 3 0.000261421 -0.000108708
6 4 0.000370391 -0.000213922
6 5 0.000447135 -0.000355978
6 6 0.000522782 -0.000500327
6 7 0.000571856 -0.000674338
6 8 0.000607291 -0.000851046
6 9 0.000632372 -0.00101484
6 10 0.000647979 -0.0011731
6 11 0.000642268 -0.00134333
6 12 0.000617793 -0.00147342
6 13 0.000574837 -0.00156439
6 14 0.00050615 -0.00163911
6 15 0.000403482 -0.00167628
6 16 0.000270572 -0.00162586
6 17 0.000110525 -0.00152409
6 18 -8.38766e-005 -0.00137924
6 19 -0.000316264 -0.00113638
6 20 -0.000570848 -0.000787629
6 21 -0.000843977 -0.000393308
6 22 -0.00114135 7.93969e-005
6 23 -0.00145907 0.000683443
6 24 -0.00176728 0.00136121
6 25 -0.00207177 0.00206855
6 26 -0.00237515 0.00288312
6 27 -0.00266708 0.00380611
6 28 -0.00290993 0.00472989
6 29 -0.00312702 0.0056744
6 30 -0.00331852 0.00672824
6 31 -0.00347312 0.0078074
6 32 -0.00354964 0.00881295
6 33 -0.00359817 0.00984964
6 34 -0.0036146 0.0109549
6 35 -0.00358232 0.0119743
6 36 -0.0034701 0.0128955
6 37 -0.00335992 0.0138754
6 38 -0.00321781 0.0148374
6 39 -0.00302711 0.0156299
6 40 -0.00278909 0.0163793
6 41 -0.00259325 0.0171976
6 42 -0.00234885 0.017878
6 43 -0.00207536 0.0183937
6 44 -0.00180852 0.0189739
6 45 -0.00159288 0.0195562
6 46 -0.00129586 0.0198987
6 47 -0.0010264 0.0202035
6 48 -0.0008007 0.0206355
6 49 -0.000580328 0.0209074
6 50 -0.000273314 0.0209556
6 51 -8.36059e-005 0.0211635
6 52 9.90251e-005 0.0213981
6 53 0.000340318 0.0213125
6 54 0.000593755 0.0212103
6 55 0.000673729 0.0213682
6 56 0.000876425 0.0212716
6 57 0.00111923 0.0208951
6 58 0.00124205 0.0208137
6 59 0.00126871 0.0208014
6 60 0.00155078 0.0202723
6 61 0.00169386 0.0198305
6 62 0.00166901 0.0198051
6 63 0.00176755 0.019372
6 64 0.00208277 0.0185265
6 65 0.00199412 0.0182852
6 66 0.00193803 0.0180807
6 67 0.00218959 0.0170814
6 68 0.00235191 0.0163187
6 69 0.00200966 0.0163094
6 70 0.00213632 0.0155163
6 71 0.00244222 0.0142148
6 72 0.00223551 0.0139871
6 73 0.00183502 0.0137986
6 74 0.00229585 0.0122426
6 75 0.00234388 0.0113701
6 76 0.00172845 0.0117007
6 77 0.00163654 0.0106754
6 78 0.00233731 0.00888248
6 79 0.00172101 0.0091866
6 80 0.000999005 0.00934669
6 81 0.00156082 0.00725085
6 82 0.00204566 0.00645603
6 83 0.000467663 0.0079223
6 84 0.000355857 0.00675838
6 85 0.00160388 0.00443329
6 86 0.00092129 0.00594693
6 87 -0.00148156 0.00732375
6 88 0.000227106 0.0041627
6 89 0.00115223 0.00367324
6 90 -0.00238279 0.00791992
6 91 -0.0037869 0.00729377
6 92 0.000224779 0.00335967
6 93 -0.00468578 0.007376
6 94 -0.00971207 0.0109443
6 95 -0.00585941 0.00667356
6 96 -0.000473419 0.00933471
6 97 -0.0153393 0.0127514
6 98 0.0101557 0.0021082
6 99 0.093779 -0.000492908
6 100 0.1 0
7 0 0 0
7 1 8.3757e-006 4.7113e-006
7 2 0.000197116 -2.03386e-006
7 3 0.000363776 -0.000103943
7 4 0.000505054 -0.000220094
7 5 0.000599266 -0.000361952
7 6 0.000684943 -0.000513656
7 7 0.000746408 -0.000675598
7 8 0.000782759 -0.000830953
7 9 0.000796873 -0.000995118
7 10 0.000804942 -0.00114016
7 11 0.000779882 -0.00125776
7 12 0.000720984 -0.00134453
7 13 0.000641517 -0.00140768
7 14 0.00053248 -0.0014103
7 15 0.000367836 -0.00135077
7 16 0.000168884 -0.0012373
7 17 -5.57439e-005 -0.00105855
7 18 -0.000329116 -0.000779974
7 19 -0.000653779 -0.00042255
7 20 -0.000988144 4.39546e-006
7 21 -0.00134518 0.000531169
7 22 -0.0017421 0.00116781
7 23 -0.00215018 0.0018713
7 24 -0.00252672 0.00264778
7 25 -0.00291524 0.00353142
7 26 -0.00330641 0.00449274
7 27 -0.00364821 0.00548392
7 28 -0.0039243 0.00653218
7 29 -0.00420538 0.00765518
7 30 -0.00443597 0.00878826
7 31 -0.00457122 0.0099019
7 32 -0.00464368 0.0110407
7 33 -0.00472129 0.0121924
7 34 -0.0047024 0.0132793
7 35 -0.00459454 0.0143162
7 36 -0.00446486 0.0153493
7 37 -0.0043389 0.0163281
7 38 -0.00409456 0.0171989
7 39 -0.00382368 0.0180306
7 40 -0.00357582 0.018834
7 41 -0.00331074 0.0195309
7 42 -0.00293896 0.0201325
7 43 -0.00263363 0.0207309
7 44 -0.00234878 0.021262
7 45 -0.00201111 0.0216677
7 46 -0.00162664 0.0220419
7 47 -0.00138095 0.0224271
7 48 -0.00107953 0.0226855
7 49 -0.00072601 0.0228583
7 50 -0.000424164 0.023076
7 51 -0.000248426 0.0232521
7 52 9.18943e-005 0.0232596
7 53 0.000387423 0.0232914
7 54 0.000566766 0.0233837
7 55 0.000741089 0.0233183
7 56 0.00111339 0.023134
7 57 0.00126214 0.0231046
7 58 0.00137158 0.0230176
7 59 0.0016214 0.0226854
7 60 0.00193437 0.0224178
7 61 0.00189684 0.0223255
7 62 0.00207008 0.0219393
7 63 0.00237447 0.0214043
7 64 0.00248536 0.0211608
7 65 0.00234836 0.0208678
7 66 0.00270312 0.0201117
7 67 0.00288281 0.0195635
7 68 0.0027262 0.0193273
7 69 0.00270179 0.0186179
7 70 0.00318945 0.0176278
7 71 0.00297793 0.0172776
7 72 0.00271358 0.0168203
7 73 0.00299687 0.0156163
7 74 0.00330381 0.0147708
7 75 0.00257909 0.0146325
7 76 0.00261838 0.0136275
7 77 0.00311694 0.0122146
7 78 0.00278102 0.0119374
7 79 0.00184565 0.0116928
7 80 0.00260275 0.01002
7 81 0.00271661 0.00905738
7 82 0.00154256 0.0094807
7 83 0.00114619 0.00859557
7 84 0.00254073 0.00661534
7 85 0.001307 0.00690901
7 86 -0.000207704 0.00757616
7 87 0.00066297 0.0055914
7 88 0.00169576 0.00439607
7 89 -0.00159488 0.00653021
7 90 -0.00247139 0.00599098
7 91 -0.000669147 0.00315961
7 92 -0.00208606 0.0054861
7 93 -0.00831656 0.00766518
7 94 -0.00475168 0.00328254
7 95 -0.00799192 0.00331584
7 96 -0.0126624 0.00970573
7 97 -0.0105472 0.0134656
7 98 0.0201538 0.00847214
7 99 0.0964329 -0.000158325
7 100 0.1 0
8 0 0 0
8 1 7.54094e-006 1.05863e-006
8 2 0.000255522 -4.55923e-005
8 3 0.000458454 -0.000119245
8 4 0.000618541 -0.000207178
8 5 0.000747891 -0.000343698
8 6 0.000831461 -0.00049378
8 7 0.000889797 -0.000638331
8 8 0.000925619 -0.000766168
8 9 0.000933475 -0.000902378
8 10 0.000902642 -0.00100578
8 11 0.000850265 -0.00106743
8 12 0.000762629 -0.00109747
8 13 0.000629624 -0.00109322
8 14 0.000447099 -0.00100571
8 15 0.000233042 -0.00085258
8 16 -3.30323e-005 -0.000646476
8 17 -0.000354301 -0.000353697
8 18 -0.000716844 5.17627e-005
8 19 -0.00110449 0.000524735
8 20 -0.00153867 0.00107483
8 21 -0.00200733 0.00174837
8 22 -0.00247913 0.00252223
8 23 -0.00294999 0.00334546
8 24 -0.00343569 0.00426299
8 25 -0.00390741 0.00529748
8 26 -0.00432892 0.00637046
8 27 -0.00471579 0.00746133
8 28 -0.00507197 0.00863957
8 29 -0.00536514 0.00986732
8 30 -0.00556915 0.0110426
8 31 -0.00571821 0.01221
8 32 -0.00581027 0.013427
8 33 -0.00582106 0.0145895
8 34 -0.0057395 0.0156369
8 35 -0.00562071 0.0166822
8 36 -0.00544899 0.0177187
8 37 -0.00520744 0.0186122
8 38 -0.00490977 0.0194051
8 39 -0.00461696 0.0202255
8 40 -0.00427792 0.0209595
8 41 -0.00389922 0.0215249
8 42 -0.00352006 0.0220775
8 43 -0.0031699 0.0226546
8 44 -0.0027642 0.0230611
8 45 -0.00236934 0.0233681
8 46 -0.00201584 0.0237566
8 47 -0.00166831 0.0240846
8 48 -0.00126261 0.02421
8 49 -0.000939697 0.0243887
8 50 -0.000642832 0.0246461
8 51 -0.000300017 0.0247069
8 52 5.08695e-005 0.0246636
8 53 0.000265333 0.0248124
8 54 0.000549743 0.024879
8 55 0.000884035 0.0246933
8 56 0.00112175 0.0246292
8 57 0.00126622 0.024724
8 58 0.00160118 0.0244975
8 59 0.00186289 0.024187
8 60 0.00196598 0.0241858
8 61 0.00214506 0.0240574
8 62 0.0025189 0.0235265
8 63 0.00260057 0.0232827
8 64 0.00264561 0.0232396
8 65 0.00294384 0.022691
8 66 0.00321902 0.022042
8 67 0.0030731 0.0219633
8 68 0.003223 0.0215705
8 69 0.00358163 0.0206043
8 70 0.00356351 0.0201601
8 71 0.00330301 0.0200568
8 72 0.00368345 0.0190149
8 73 0.00385483 0.018005
8 74 0.00345922 0.0179486
8 75 0.00334415 0.0173297
8 76 0.00388654 0.0157381
8 77 0.00353502 0.015318
8 78 0.0029404 0.0153413
8 79 0.00322717 0.0137806
8 80 0.00359173 0.0124247
8 81 0.00248743 0.0129618
8 82 0.00217729 0.012217
8 83 0.00290069 0.0100197
8 84 0.00246102 0.0101058
8 85 0.000691591 0.0110228
8 86 0.0014382 0.00877382
8 87 0.00199063 0.00739619
8 88 -0.000235701 0.00948768
8 89 -0.00166993 0.0092576
8 90 0.000786561 0.00617112
8 91 -0.0018036 0.00755225
8 92 -0.00559455 0.00977736
8 93 -0.00413407 0.00690141
8 94 -0.00248093 0.00592779
8 95 -0.012304 0.00904174
8 96 -0.0119125 0.0057655
8 97 -0.00348207 6.73815e-005
8 98 0.0222473 -0.0053091
8 99 0.0966761 -0.00102476
8 100 0.1 0
9 0 0 0
9 1 1.32529e-005 3.68662e-006
9 2 0.000310986 -1.34568e-007
9 3 0.000558358 -8.64003e-005
9 4 0.000735674 -0.00019841
9 5 0.000885019 -0.000320523
9 6 0.000971713 -0.00043118
9 7 0.00102729 -0.000560351
9 8 0.0010458 -0.000676213
9 9 0.00103766 -0.000762537
9 10 0.000973113 -0.000813821
9 11 0.000881609 -0.00084669
9 12 0.000743465 -0.00081685
9 13 0.000554779 -0.000718519
9 14 0.000302519 -0.00056557
9 15 1.65387e-005 -0.000351152
9 16 -0.000333988 -2.7993e-005
9 17 -0.000741964 0.000382244
9 18 -0.00119657 0.000861792
9 19 -0.00167799 0.00144607
9 20 -0.0022152 0.00215834
9 21 -0.00277771 0.00294706
9 22 -0.00334054 0.00381338
9 23 -0.00390278 0.00480339
9 24 -0.00447844 0.00589023
9 25 -0.00501421 0.00701132
9 26 -0.00548824 0.00819524
9 27 -0.00592863 0.00946607
9 28 -0.00632365 0.0107487
9 29 -0.00660989 0.012002
9 30 -0.00680262 0.0132757
9 31 -0.00695226 0.014555
9 32 -0.00701037 0.0157504
9 33 -0.00694206 0.016875
9 34 -0.00681095 0.0179818
9 35 -0.00665106 0.0190147
9 36 -0.00638647 0.0199157
9 37 -0.00604385 0.0207609
9 38 -0.00570227 0.0215662
9 39 -0.00533966 0.0222485
9 40 -0.00488738 0.0228223
9 41 -0.00444261 0.0233889
9 42 -0.00403589 0.0238854
9 43 -0.00358891 0.0242509
9 44 -0.00309889 0.024585
9 45 -0.002693 0.0249375
9 46 -0.00229549 0.0251698
9 47 -0.0018411 0.0253193
9 48 -0.00142367 0.0255217
9 49 -0.00110426 0.0257001
9 50 -0.00071507 0.0257223
9 51 -0.000311009 0.0257705
9 52 -1.6105e-005 0.0258957
9 53 0.000259724 0.0258927
9 54 0.000651968 0.0257756
9 55 0.000946087 0.0258103
9 56 0.00114696 0.0258256
9 57 0.00145467 0.0256253
9 58 0.00180806 0.0254676
9 59 0.00196018 0.0254977
9 60 0.00216538 0.025301
9 61 0.0025243 0.0249462
9 62 0.0027448 0.0248382
9 63 0.0028034 0.0247494
9 64 0.00311324 0.024255
9 65 0.00342615 0.0238791
9 66 0.00344522 0.023806
9 67 0.00354542 0.0233901
9 68 0.00395543 0.0226519
9 69 0.00403537 0.0224081
9 70 0.00390831 0.0221625
9 71 0.00419171 0.0212754
9 72 0.00451287 0.0205424
9 73 0.00421023 0.0204269
9 74 0.00415926 0.0196744
9 75 0.00461882 0.0184586
9 76 0.00450114 0.0180409
9 77 0.00389739 0.0177602
9 78 0.00422666 0.0163311
9 79 0.00452051 0.0152856
9 80 0.00367658 0.0152607
9 81 0.00323066 0.0143649
9 82 0.00401273 0.0125743
9 83 0.00342363 0.0123174
9 84 0.00207199 0.0123215
9 85 0.00241151 0.0105708
9 86 0.00298373 0.00927422
9 87 0.000888342 0.0101564
9 88 -2.86367e-005 0.00935796
9 89 0.00099782 0.00703655
9 90 -0.00012825 0.00766357
9 91 -0.00368519 0.00895439
9 92 -0.00259141 0.00594303
9 93 -0.00333091 0.00508514
9 94 -0.00765783 0.00817341
9 95 -0.00834796 0.0064072
9 96 -0.00637493 0.000593883
9 97 -0.0045317 0.00296412
9 98 0.0218143 0.00507422
9 99 0.0965453 -7.22098e-005
9 100 0.1 0
10 0 0 0
10 1 1.73409e-005 7.45866e-008
10 2 0.000351195 -3.07521e-005
10 3 0.000643217 -8.56885e-005
10 4 0.000839144 -0.000165271
10 5 0.000987852 -0.000268341
10 6 0.00107703 -0.000362053
10 7 0.00113367 -0.000462557
10 8 0.00112033 -0.000537616
10 9 0.00107784 -0.00057971
10 10 0.000986289 -0.000582452
10 11 0.000846825 -0.000552772
10 12 0.000634103 -0.000450181
10 13 0.00038613 -0.000278642
10 14 7.12298e-005 -4.15385e-005
10 15 -0.000310805 0.000275272
10 16 -0.000761482 0.000702684
10 17 -0.00124468 0.00121741
10 18 -0.0017968 0.0018223
10 19 -0.00240234 0.00254549
10 20 -0.00303699 0.00338799
10 21 -0.00367587 0.00431253
10 22 -0.0043498 0.00533633
10 23 -0.00502009 0.00647849
10 24 -0.00564672 0.00769392
10 25 -0.006228 0.00894502
10 26 -0.00678021 0.0102643
10 27 -0.00725071 0.0116356
10 28 -0.00761255 0.0129769
10 29 -0.00789142 0.0142847
10 30 -0.00809061 0.0156011
10 31 -0.00817099 0.0168667
10 32 -0.00813277 0.0180097
10 33 -0.00802307 0.0190893
10 34 -0.00783509 0.0201306
10 35 -0.00754771 0.0210432
10 36 -0.00718795 0.021819
10 37 -0.00680732 0.0225627
10 38 -0.00637224 0.0232358
10 39 -0.00588441 0.023756
10 40 -0.00539122 0.0242064
10 41 -0.00491559 0.0246655
10 42 -0.00439567 0.0250128
10 43 -0.00387843 0.0252465
10 44 -0.0034054 0.0255076
10 45 -0.00294212 0.0257613
10 46 -0.00243832 0.0258685
10 47 -0.002 0.0259666
10 48 -0.00160535 0.0261399
10 49 -0.00117599 0.0262214
10 50 -0.000742407 0.0261892
10 51 -0.000423139 0.0262719
10 52 -7.69969e-005 0.0263617
10 53 0.000326299 0.0262832
10 54 0.000648479 0.0262257
10 55 0.000879117 0.0263213
10 56 0.001244 0.0262566
10 57 0.00159264 0.0260751
10 58 0.00178581 0.0260775
10 59 0.00202219 0.0260924
10 60 0.0024279 0.0258216
10 61 0.00264566 0.0256565
10 62 0.0027637 0.0256889
10 63 0.00310315 0.0254623
10 64 0.00346296 0.0250527
10 65 0.00349639 0.0249996
10 66 0.00367381 0.0248704
10 67 0.00410708 0.024319
10 68 0.00425363 0.0239583
10 69 0.00416694 0.0239413
10 70 0.00452749 0.0233867
10 71 0.00486907 0.0226498
10 72 0.00468438 0.0224937
10 73 0.00467277 0.0221949
10 74 0.0051771 0.0211173
10 75 0.0051241 0.020559
10 76 0.00469017 0.0204922
10 77 0.00495513 0.0195114
10 78 0.00530792 0.0182411
10 79 0.00462859 0.0182049
10 80 0.00427971 0.017716
10 81 0.00482405 0.0160052
10 82 0.00452414 0.0153248
10 83 0.00326659 0.0156652
10 84 0.00351497 0.0141302
10 85 0.00392574 0.0124945
10 86 0.00234921 0.01305
10 87 0.00111005 0.0128179
10 88 0.00242787 0.0103941
10 89 0.00123112 0.0103204
10 90 -0.00184415 0.0113159
10 91 -0.00133595 0.00947669
10 92 -0.000187738 0.00790726
10 93 -0.0054746 0.00930563
10 94 -0.00719368 0.00778976
10 95 -0.00324264 0.00624692
10 96 -0.00743156 0.00750642
10 97 -0.00420274 0.00611151
10 98 0.0266931 -0.000528954
10 99 0.0984725 -0.000924395
10 100 0.1 0
11 0 0 0
11 1 2.40287e-005 2.80179e-006
11 2 0.000393115 -2.91582e-006
11 3 0.000712916 -6.85467e-005
11 4 0.000927146 -0.00013121
11 5 0.00108472 -0.000212446
11 6 0.00116429 -0.000291812
11 7 0.00120498 -0.000352504
11 8 0.00116843 -0.000378866
11 9 0.00109033 -0.00039526
11 10 0.000947398 -0.000357312
11 11 0.000753473 -0.000249625
11 12 0.000477918 -8.36388e-005
11 13 0.000152771 0.000135504
11 14 -0.000251293 0.000464522
11 15 -0.00072107 0.000893565
11 16 -0.00126792 0.00139866
11 17 -0.0018617 0.00200888
11 18 -0.00252761 0.00276702
11 19 -0.00323732 0.00362574
11 20 -0.00398187 0.00457193
11 21 -0.00473584 0.0056554
11 22 -0.00550886 0.00686632
11 23 -0.00625614 0.00812754
11 24 -0.00695397 0.00945161
11 25 -0.0075931 0.010872
11 26 -0.00817274 0.0123136
11 27 -0.00863801 0.013709
11 28 -0.00898026 0.0151025
11 29 -0.00922956 0.0164901
11 30 -0.00936879 0.0177698
11 31 -0.00935705 0.0189351
11 32 -0.00923431 0.0200533
11 33 -0.00904508 0.0210776
11 34 -0.00874656 0.0219325
11 35 -0.00834139 0.0226936