Title= "LBM Lid Driven Flow"
VARIABLES="X","Y","U","V"
ZONE T="BOX",I=101,J=101,F=POINT
0 0 0 0
0 1 0 0
0 2 0 0
0 3 0 0
0 4 0 0
0 5 0 0
0 6 0 0
0 7 0 0
0 8 0 0
0 9 0 0
0 10 0 0
0 11 0 0
0 12 0 0
0 13 0 0
0 14 0 0
0 15 0 0
0 16 0 0
0 17 0 0
0 18 0 0
0 19 0 0
0 20 0 0
0 21 0 0
0 22 0 0
0 23 0 0
0 24 0 0
0 25 0 0
0 26 0 0
0 27 0 0
0 28 0 0
0 29 0 0
0 30 0 0
0 31 0 0
0 32 0 0
0 33 0 0
0 34 0 0
0 35 0 0
0 36 0 0
0 37 0 0
0 38 0 0
0 39 0 0
0 40 0 0
0 41 0 0
0 42 0 0
0 43 0 0
0 44 0 0
0 45 0 0
0 46 0 0
0 47 0 0
0 48 0 0
0 49 0 0
0 50 0 0
0 51 0 0
0 52 0 0
0 53 0 0
0 54 0 0
0 55 0 0
0 56 0 0
0 57 0 0
0 58 0 0
0 59 0 0
0 60 0 0
0 61 0 0
0 62 0 0
0 63 0 0
0 64 0 0
0 65 0 0
0 66 0 0
0 67 0 0
0 68 0 0
0 69 0 0
0 70 0 0
0 71 0 0
0 72 0 0
0 73 0 0
0 74 0 0
0 75 0 0
0 76 0 0
0 77 0 0
0 78 0 0
0 79 0 0
0 80 0 0
0 81 0 0
0 82 0 0
0 83 0 0
0 84 0 0
0 85 0 0
0 86 0 0
0 87 0 0
0 88 0 0
0 89 0 0
0 90 0 0
0 91 0 0
0 92 0 0
0 93 0 0
0 94 0 0
0 95 0 0
0 96 0 0
0 97 0 0
0 98 0 0
0 99 0 0
0 100 0.1 0
1 0 0 0
1 1 -1.598e-006 2.78266e-007
1 2 8.65849e-007 4.80027e-006
1 3 -1.16276e-006 7.41572e-006
1 4 1.57332e-006 3.72501e-006
1 5 2.57158e-007 -4.67305e-006
1 6 1.41903e-006 -4.69927e-006
1 7 9.11422e-007 9.99874e-006
1 8 4.29181e-006 4.83981e-006
1 9 2.36363e-006 -6.91447e-006
1 10 3.77976e-006 6.30959e-006
1 11 4.22674e-006 1.98849e-005
1 12 7.09811e-006 2.21798e-006
1 13 3.65183e-006 1.47514e-006
1 14 6.81831e-006 2.60913e-005
1 15 6.76551e-006 2.35234e-005
1 16 8.3533e-006 2.5284e-006
1 17 4.28921e-006 2.24439e-005
1 18 9.65847e-006 4.21755e-005
1 19 7.28521e-006 1.97269e-005
1 20 8.21155e-006 1.32247e-005
1 21 4.85121e-006 4.84311e-005
1 22 1.15958e-005 4.52463e-005
1 23 5.73429e-006 1.56599e-005
1 24 7.94665e-006 3.62039e-005
1 25 5.64097e-006 6.66621e-005
1 26 1.21255e-005 3.45802e-005
1 27 2.98564e-006 2.126e-005
1 28 8.71214e-006 6.45669e-005
1 29 6.08793e-006 6.61606e-005
1 30 1.09881e-005 1.90522e-005
1 31 1.74034e-007 4.21838e-005
1 32 1.06494e-005 8.41986e-005
1 33 4.89588e-006 4.42746e-005
1 34 8.4242e-006 1.33145e-005
1 35 -1.73934e-006 7.41826e-005
1 36 1.29076e-005 7.92308e-005
1 37 9.99214e-007 1.09969e-005
1 38 5.77812e-006 3.07868e-005
1 39 -1.95396e-006 0.000100434
1 40 1.42685e-005 4.13334e-005
1 41 -5.22614e-006 -9.87622e-006
1 42 5.8242e-006 7.29692e-005
1 43 -2.10094e-007 9.5012e-005
1 44 1.38924e-005 -1.68648e-005
1 45 -1.09811e-005 1.09159e-005
1 46 1.17932e-005 0.000117338
1 47 2.21483e-006 3.98623e-005
1 48 1.2466e-005 -5.38303e-005
1 49 -1.13943e-005 8.3497e-005
1 50 2.45946e-005 0.000119226
1 51 2.48146e-006 -4.70292e-005
1 52 1.35241e-005 -1.67826e-005
1 53 -2.43631e-006 0.000171514
1 54 4.03457e-005 4.34106e-005
1 55 -1.24457e-006 -9.88536e-005
1 56 2.31772e-005 0.000111256
1 57 1.48333e-005 0.000196292
1 58 5.198e-005 -8.85156e-005
1 59 -6.11212e-006 -3.17269e-005
1 60 4.67197e-005 0.000268737
1 61 3.22487e-005 8.97433e-005
1 62 5.52609e-005 -0.000178095
1 63 -3.70226e-006 0.000184623
1 64 8.36443e-005 0.0003238
1 65 3.80818e-005 -0.000130983
1 66 5.51544e-005 -9.0615e-005
1 67 1.59381e-005 0.000461003
1 68 0.000124427 0.000149697
1 69 2.53414e-005 -0.00031958
1 70 6.77558e-005 0.00024586
1 71 5.64918e-005 0.000581425
1 72 0.000152942 -0.000258102
1 73 9.62691e-007 -0.00023441
1 74 0.000115613 0.00071953
1 75 0.000107063 0.000292977
1 76 0.00015679 -0.000679565
1 77 -8.67409e-006 0.000320196
1 78 0.000216087 0.000964335
1 79 0.000140392 -0.000505155
1 80 0.000143794 -0.000662842
1 81 4.11305e-005 0.00125062
1 82 0.000364942 0.000427929
1 83 0.000126755 -0.00153401
1 84 0.000158871 0.000304964
1 85 0.000206945 0.00188507
1 86 0.000523741 -0.0013913
1 87 6.44089e-005 -0.00193
1 88 0.000303861 0.00239346
1 89 0.000550622 0.000670712
1 90 0.000625918 -0.00461946
1 91 1.49631e-005 1.84135e-005
1 92 0.000765081 0.00502695
1 93 0.00118045 -0.00529674
1 94 0.000762716 -0.0105783
1 95 1.2005e-005 0.00694803
1 96 0.00244859 0.00321799
1 97 0.00230126 -0.0238711
1 98 -0.00307294 0.0331969
1 99 0.00726607 0.0123374
1 100 0.1 0
2 0 0 0
2 1 -2.36101e-006 -1.4274e-006
2 2 -6.75935e-006 -1.16477e-005
2 3 5.5118e-007 -6.52743e-006
2 4 1.60227e-006 -1.74173e-005
2 5 -5.22628e-006 -2.06031e-005
2 6 -1.79322e-006 -1.05738e-005
2 7 -5.87851e-006 -1.69267e-005
2 8 2.57167e-006 -1.97438e-005
2 9 -1.03041e-005 2.58004e-006
2 10 2.2604e-006 1.37456e-005
2 11 -8.81485e-006 6.92482e-006
2 12 6.24452e-006 2.76832e-005
2 13 -1.50362e-005 5.864e-005
2 14 9.32683e-006 5.82723e-005
2 15 -1.23818e-005 6.31068e-005
2 16 9.852e-006 0.000103329
2 17 -1.84895e-005 0.000121787
2 18 1.68708e-005 0.000113438
2 19 -1.87001e-005 0.000140195
2 20 1.45489e-005 0.000182044
2 21 -2.16595e-005 0.000176944
2 22 2.32011e-005 0.00017736
2 23 -2.68461e-005 0.000224405
2 24 2.16629e-005 0.000245922
2 25 -2.61558e-005 0.000225095
2 26 2.8764e-005 0.000252093
2 27 -3.56013e-005 0.000302007
2 28 3.10568e-005 0.00029101
2 29 -3.33512e-005 0.000278851
2 30 3.4268e-005 0.000336372
2 31 -4.54758e-005 0.000362368
2 32 4.19818e-005 0.000327417
2 33 -4.49681e-005 0.000351423
2 34 3.91024e-005 0.000420408
2 35 -5.72395e-005 0.000401557
2 36 5.37314e-005 0.000373857
2 37 -6.43412e-005 0.000445626
2 38 4.39881e-005 0.000487381
2 39 -6.98269e-005 0.000427713
2 40 6.34765e-005 0.000450407
2 41 -9.39208e-005 0.000548599
2 42 5.5521e-005 0.000524667
2 43 -8.40724e-005 0.000467175
2 44 6.59696e-005 0.000568978
2 45 -0.000127692 0.000635734
2 46 8.28246e-005 0.000543228
2 47 -0.000109261 0.000561487
2 48 6.25106e-005 0.000720175
2 49 -0.000149841 0.00068832
2 50 0.000124078 0.000591645
2 51 -0.000158635 0.000743014
2 52 7.18463e-005 0.000867641
2 53 -0.00015017 0.000721333
2 54 0.000159449 0.000741143
2 55 -0.000231313 0.000997432
2 56 0.000124326 0.000968303
2 57 -0.000144293 0.000798731
2 58 0.000166033 0.00103461
2 59 -0.000299973 0.0012483
2 60 0.000236985 0.00101645
2 61 -0.000175696 0.00100966
2 62 0.000145956 0.00142941
2 63 -0.00032242 0.00139403
2 64 0.000389542 0.00107907
2 65 -0.000293498 0.00140609
2 66 0.00014581 0.001784
2 67 -0.000272369 0.00138864
2 68 0.000516531 0.00128551
2 69 -0.000515954 0.0019348
2 70 0.000254115 0.00192077
2 71 -0.000176351 0.00131859
2 72 0.000519622 0.00175883
2 73 -0.000787423 0.00241281
2 74 0.000570795 0.00175576
2 75 -0.000154539 0.00141888
2 76 0.000317939 0.00250951
2 77 -0.000943065 0.00259078
2 78 0.00113334 0.00143764
2 79 -0.000451984 0.00200254
2 80 -2.90112e-005 0.0033498
2 81 -0.000720591 0.0023136
2 82 0.0017684 0.001433
2 83 -0.00138736 0.00334165
2 84 -0.000139254 0.00391893
2 85 0.000136685 0.0017597
2 86 0.00183687 0.002582
2 87 -0.00312219 0.00559919
2 88 0.0008599 0.00397887
2 89 0.00170247 0.00181465
2 90 -0.000172659 0.00625017
2 91 -0.00543968 0.00913244
2 92 0.00451939 0.00436066
2 93 0.00463339 0.00436785
2 94 -0.00743739 0.0155081
2 95 -0.00968359 0.0185521
2 96 0.0163493 0.0140792
2 97 -0.0170677 0.0402067
2 98 -0.0258217 0.0347588
2 99 0.0901016 0.000750908
2 100 0.1 0
3 0 0 0
3 1 4.27558e-006 -2.46221e-007
3 2 2.62454e-006 -1.8521e-006
3 3 2.07093e-006 -1.89414e-005
3 4 5.47725e-006 -2.45584e-005
3 5 -6.91483e-006 -1.68059e-005
3 6 -9.43276e-007 -2.00726e-005
3 7 -5.51932e-006 -2.24593e-005
3 8 -1.24716e-005 -5.16579e-006
3 9 -1.79915e-005 1.266e-005
3 10 -4.41275e-006 1.6431e-005
3 11 -1.91179e-005 3.48371e-005
3 12 -2.02506e-005 6.80334e-005
3 13 -1.7007e-005 8.49538e-005
3 14 -5.70276e-006 9.62663e-005
3 15 -2.91569e-005 0.000131728
3 16 -1.56331e-005 0.00016447
3 17 -1.22498e-005 0.000174431
3 18 -9.72582e-006 0.000197496
3 19 -3.33661e-005 0.000240523
3 20 -3.66834e-006 0.000260427
3 21 -1.27451e-005 0.000269049
3 22 -1.57554e-005 0.000306608
3 23 -3.02341e-005 0.000344169
3 24 7.94517e-006 0.000349794
3 25 -2.24546e-005 0.000369349
3 26 -1.89729e-005 0.000417143
3 27 -2.21207e-005 0.000438801
3 28 1.13868e-005 0.000441011
3 29 -3.97634e-005 0.000481549
3 30 -1.53395e-005 0.000527797
3 31 -1.60189e-005 0.000532072
3 32 1.68983e-006 0.000549278
3 33 -5.93322e-005 0.000610596
3 34 -4.71084e-006 0.000640431
3 35 -2.12702e-005 0.000638868
3 36 -2.10259e-005 0.000688366
3 37 -7.391e-005 0.000755687
3 38 8.63875e-006 0.00076017
3 39 -4.64887e-005 0.00077813
3 40 -4.93075e-005 0.000864268
3 41 -7.60392e-005 0.000910963
3 42 1.5143e-005 0.000900939
3 43 -9.49063e-005 0.000969799
3 44 -6.61106e-005 0.00107093
3 45 -6.4166e-005 0.0010753
3 46 4.52288e-007 0.00109159
3 47 -0.000155277 0.00122446
3 48 -4.98602e-005 0.00129266
3 49 -5.26649e-005 0.00126819
3 50 -4.41544e-005 0.00136689
3 51 -0.000196265 0.00152793
3 52 7.57701e-006 0.00151971
3 53 -7.16014e-005 0.00153327
3 54 -0.000103038 0.00173688
3 55 -0.000179894 0.0018394
3 56 8.30855e-005 0.0017685
3 57 -0.000144921 0.00191181
3 58 -0.000128631 0.00215642
3 59 -9.30534e-005 0.0021156
3 60 0.000126256 0.00208315
3 61 -0.000259523 0.00239568
3 62 -6.17783e-005 0.00252846
3 63 2.60082e-005 0.00234771
3 64 8.95303e-005 0.00250731
3 65 -0.000351206 0.00289451
3 66 0.000127367 0.00275173
3 67 8.76394e-005 0.00258676
3 68 -3.03835e-005 0.00303762
3 69 -0.000324946 0.00324708
3 70 0.000400058 0.00279643
3 71 -1.54659e-005 0.00293923
3 72 -0.000160126 0.00357592
3 73 -0.000110396 0.00328674
3 74 0.000632511 0.00278006
3 75 -0.000340562 0.00351108
3 76 -0.000153369 0.0039009
3 77 0.000265216 0.00296308
3 78 0.000637255 0.00300526
3 79 -0.000814028 0.00427793
3 80 0.000154866 0.00371056
3 81 0.000618463 0.00252124
3 82 0.000213073 0.00389329
3 83 -0.00120073 0.00491934
3 84 0.000890451 0.00281718
3 85 0.000560275 0.00270588
3 86 -0.000833955 0.00574349
3 87 -0.00118683 0.00472152
3 88 0.002152 0.00149954
3 89 -0.000560763 0.00493457
3 90 -0.0028352 0.00827593
3 91 -0.000902396 0.00247452
3 92 0.00418569 0.00106659
3 93 -0.00291239 0.0124463
3 94 -0.00954739 0.0111255
3 95 -0.00359059 -0.00262711
3 96 -0.00452461 0.0159558
3 97 -0.0339525 0.0280284
3 98 0.0100308 0.0126835
3 99 0.100576 -7.13931e-005
3 100 0.1 0
4 0 0 0
4 1 4.25921e-006 -6.19862e-007
4 2 8.16335e-006 -1.71632e-005
4 3 -4.41611e-006 -1.53142e-005
4 4 -9.54854e-007 -3.2772e-006
4 5 -6.51233e-006 -7.17715e-006
4 6 -1.19858e-005 -1.24876e-005
4 7 -2.24483e-005 1.31466e-005
4 8 -2.74468e-005 3.31782e-005
4 9 -2.97485e-005 3.47244e-005
4 10 -3.58095e-005 6.12753e-005
4 11 -4.05429e-005 0.00010862
4 12 -4.14398e-005 0.000123099
4 13 -3.99817e-005 0.000139007
4 14 -4.64462e-005 0.000194389
4 15 -4.4652e-005 0.000236523
4 16 -4.40651e-005 0.000241823
4 17 -4.2536e-005 0.000283119
4 18 -4.88778e-005 0.00034823
4 19 -4.18827e-005 0.000366518
4 20 -4.4104e-005 0.000377758
4 21 -4.30084e-005 0.000446214
4 22 -4.81399e-005 0.000495014
4 23 -3.88485e-005 0.000492465
4 24 -4.62876e-005 0.00053141
4 25 -4.37986e-005 0.000611593
4 26 -4.8515e-005 0.000626143
4 27 -3.9754e-005 0.00062771
4 28 -5.26273e-005 0.000704904
4 29 -4.74351e-005 0.000768581
4 30 -5.39356e-005 0.000753261
4 31 -4.71178e-005 0.000792817
4 32 -6.5481e-005 0.000894878
4 33 -5.69191e-005 0.000916693
4 34 -6.70085e-005 0.000902827
4 35 -6.36525e-005 0.00100225
4 36 -8.74054e-005 0.0010922
4 37 -7.27689e-005 0.00106998
4 38 -8.97872e-005 0.00110636
4 39 -9.22449e-005 0.00125524
4 40 -0.00011644 0.00128918
4 41 -9.28683e-005 0.00126015
4 42 -0.00012579 0.00138809
4 43 -0.000130137 0.00153436
4 44 -0.000144004 0.00149423
4 45 -0.000118234 0.00153347
4 46 -0.00017582 0.00174898
4 47 -0.000162746 0.00181597
4 48 -0.000163378 0.00174689
4 49 -0.000154975 0.00193029
4 50 -0.000227463 0.00215426
4 51 -0.000170106 0.00209578
4 52 -0.000180535 0.00211327
4 53 -0.000203191 0.00244617
4 54 -0.00025323 0.00254399
4 55 -0.000145144 0.0024138
4 56 -0.000210715 0.00264445
4 57 -0.000242772 0.00300345
4 58 -0.000226713 0.00287525
4 59 -0.000105791 0.00284731
4 60 -0.000260621 0.00331308
4 61 -0.00023434 0.0034718
4 62 -0.000145734 0.00317084
4 63 -8.9485e-005 0.00345733
4 64 -0.000312373 0.00397772
4 65 -0.000138177 0.00374607
4 66 -4.7643e-005 0.00353239
4 67 -0.000133996 0.00421123
4 68 -0.000319503 0.00442235
4 69 5.64716e-005 0.003845
4 70 -1.27613e-005 0.00409222
4 71 -0.000245855 0.00493176
4 72 -0.000216495 0.00448231
4 73 0.000292508 0.00396821
4 74 -0.0001467 0.004905
4 75 -0.000354926 0.00533375
4 76 4.64114e-005 0.00421391
4 77 0.00039642 0.00444986
4 78 -0.000517933 0.00583054
4 79 -0.000276844 0.00519335
4 80 0.000413619 0.00401872
4 81 5.18185e-005 0.00559604
4 82 -0.00103841 0.00652224
4 83 0.000239252 0.00461553
4 84 0.000568738 0.00465599
4 85 -0.00110433 0.00746777
4 86 -0.00132836 0.00660004
4 87 0.00125196 0.00428348
4 88 -0.000221802 0.00712824
4 89 -0.0031309 0.00970085
4 90 -0.000591531 0.00597484
4 91 0.00166511 0.00562323
4 92 -0.00349565 0.0124673
4 93 -0.00466448 0.0114982
4 94 -0.000107088 0.00514242
4 95 -0.00876417 0.0138566
4 96 -0.0146653 0.0139979
4 97 -0.00725563 -0.00767095
4 98 0.0115956 -0.0169168
4 99 0.0929676 -0.00109884
4 100 0.1 0
5 0 0 0
5 1 1.05929e-005 -8.56855e-007
5 2 5.51578e-006 -3.79403e-006
5 3 -5.09991e-006 -2.29588e-006
5 4 -9.4752e-007 -9.28981e-006
5 5 -1.10363e-005 -9.12078e-006
5 6 -2.7438e-005 9.29283e-006
5 7 -4.02125e-005 2.87982e-005
5 8 -4.08361e-005 3.89863e-005
5 9 -5.37765e-005 6.71084e-005
5 10 -6.9198e-005 0.000107008
5 11 -6.6546e-005 0.000135091
5 12 -6.5294e-005 0.000163316
5 13 -7.94325e-005 0.000214275
5 14 -8.35432e-005 0.000258634
5 15 -7.00035e-005 0.000288487
5 16 -7.68615e-005 0.000333615
5 17 -8.79269e-005 0.000392348
5 18 -7.92903e-005 0.000428209
5 19 -6.74878e-005 0.000463171
5 20 -8.52781e-005 0.000521556
5 21 -8.55238e-005 0.000573342
5 22 -7.04974e-005 0.000600862
5 23 -7.10499e-005 0.000648911
5 24 -9.34052e-005 0.000711762
5 25 -7.83387e-005 0.000749395
5 26 -6.92728e-005 0.000780178
5 27 -8.51686e-005 0.000845279
5 28 -0.000101173 0.000901444
5 29 -7.43865e-005 0.000929773
5 30 -8.4542e-005 0.000978802
5 31 -0.000109175 0.00105606
5 32 -0.000109649 0.00109832
5 33 -8.33823e-005 0.00113288
5 34 -0.000120933 0.00120924
5 35 -0.00013897 0.00128624
5 36 -0.000122229 0.00131698
5 37 -0.000114953 0.00137817
5 38 -0.00017638 0.00147886
5 39 -0.000167151 0.0015414
5 40 -0.000145645 0.00157625
5 41 -0.000175044 0.00168162
5 42 -0.000237647 0.00178874
5 43 -0.00018637 0.00183079
5 44 -0.000191409 0.00189976
5 45 -0.000256915 0.00205161
5 46 -0.000280462 0.0021355
5 47 -0.00019956 0.00217447
5 48 -0.000268907 0.00231198
5 49 -0.000331489 0.00248145
5 50 -0.000284331 0.0025195
5 51 -0.000225258 0.00260535
5 52 -0.00036663 0.00281976
5 53 -0.000354119 0.00294689
5 54 -0.000254385 0.00295635
5 55 -0.000282447 0.00315058
5 56 -0.000439756 0.00338964
5 57 -0.000292943 0.00341985
5 58 -0.00022646 0.00347458
5 59 -0.000362565 0.00379452
5 60 -0.000425096 0.00394652
5 61 -0.000159397 0.0038898
5 62 -0.000245133 0.00408941
5 63 -0.000414727 0.00445323
5 64 -0.000280174 0.0044057
5 65 -1.87903e-005 0.00437259
5 66 -0.000328258 0.00476678
5 67 -0.000359318 0.00498916
5 68 -2.73272e-005 0.00472185
5 69 2.71875e-005 0.00490006
5 70 -0.000435151 0.00540305
5 71 -0.000128552 0.00526811
5 72 0.000214154 0.00493428
5 73 -0.000108163 0.00549474
5 74 -0.000454921 0.00583329
5 75 0.000267028 0.00524036
5 76 0.000234734 0.00519796
5 77 -0.00041596 0.00612382
5 78 -0.000246687 0.00586821
5 79 0.000654609 0.00503507
5 80 -0.000178675 0.00576964
5 81 -0.000742216 0.0066229
5 82 0.000240166 0.005377
5 83 0.000645979 0.00505475
5 84 -0.00109291 0.00686734
5 85 -0.000842169 0.00663461
5 86 0.000792865 0.00447985
5 87 -0.000329082 0.00602435
5 88 -0.00237646 0.00833984
5 89 -0.000535571 0.00570017
5 90 0.000707236 0.00418677
5 91 -0.00288248 0.00891718
5 92 -0.00467355 0.00865339
5 93 0.000161465 0.00426324
5 94 -0.00294954 0.00941693
5 95 -0.013186 0.00839824
5 96 0.00151715 -0.00309751
5 97 -0.00601948 0.000155007
5 98 0.00450943 0.00761678
5 99 0.0879441 0.00114434
5 100 0.1 0
6 0 0 0
6 1 9.93853e-006 -1.17059e-006
6 2 1.58495e-006 -8.75923e-008
6 3 -2.8163e-006 -3.30436e-006
6 4 -9.57575e-006 -7.71243e-006
6 5 -3.34895e-005 1.25724e-005
6 6 -4.29921e-005 3.39547e-005
6 7 -5.78689e-005 3.92087e-005
6 8 -7.48946e-005 6.45187e-005
6 9 -9.23455e-005 0.000115597
6 10 -9.38272e-005 0.000143108
6 11 -0.00010581 0.000165518
6 12 -0.00011548 0.000225371
6 13 -0.000119452 0.000283633
6 14 -0.000114796 0.000305986
6 15 -0.000126367 0.000353394
6 16 -0.000126926 0.000431847
6 17 -0.000122996 0.000473622
6 18 -0.00012109 0.000498111
6 19 -0.000132577 0.000573808
6 20 -0.000124152 0.00064548
6 21 -0.000121692 0.00066553
6 22 -0.000126129 0.000711181
6 23 -0.000133865 0.000804662
6 24 -0.000120729 0.000848244
6 25 -0.000127773 0.000863954
6 26 -0.000135346 0.000945007
6 27 -0.000137594 0.00103228
6 28 -0.000127731 0.00104475
6 29 -0.000146768 0.00108708
6 30 -0.000151723 0.00119873
6 31 -0.00015222 0.00125412
6 32 -0.000152456 0.00125774
6 33 -0.00018046 0.00135295
6 34 -0.00017964 0.00146769
6 35 -0.000184909 0.00148167
6 36 -0.000197445 0.00151873
6 37 -0.000229769 0.00166882
6 38 -0.000222414 0.00174709
6 39 -0.000237713 0.0017422
6 40 -0.000262108 0.00185637
6 41 -0.000292814 0.00202689
6 42 -0.000277196 0.00204192
6 43 -0.000309029 0.00207742
6 44 -0.000341931 0.00228301
6 45 -0.00035895 0.00240902
6 46 -0.000337349 0.0023806
6 47 -0.000395939 0.00253127
6 48 -0.000421253 0.00278098
6 49 -0.000410865 0.0028051
6 50 -0.000400454 0.00281938
6 51 -0.00048712 0.00311928
6 52 -0.000471016 0.00330289
6 53 -0.000438226 0.00323854
6 54 -0.000466498 0.0034163
6 55 -0.000553176 0.00379489
6 56 -0.000463008 0.00380065
6 57 -0.000447012 0.00377175
6 58 -0.000524083 0.00417459
6 59 -0.000552313 0.00444893
6 60 -0.000390867 0.00426976
6 61 -0.000453055 0.00446762
6 62 -0.000542076 0.00499405
6 63 -0.00045296 0.00496302
6 64 -0.000281202 0.00477165
6 65 -0.000468703 0.00531813
6 66 -0.000478002 0.00567951
6 67 -0.00025911 0.0052955
6 68 -0.000193587 0.00540602
6 69 -0.00049149 0.00618366
6 70 -0.000296693 0.00603117
6 71 -3.19414e-005 0.00555297
6 72 -0.000209323 0.00622897
6 73 -0.000491741 0.00679807
6 74 5.06783e-006 0.00600039
6 75 9.17623e-005 0.00598905
6 76 -0.000396274 0.00714019
6 77 -0.000400338 0.00689361
6 78 0.000357189 0.00584235
6 79 -0.00011001 0.00687301
6 80 -0.000735849 0.0078225
6 81 -0.000116433 0.00644725
6 82 0.000515241 0.00614422
6 83 -0.00090596 0.00823755
6 84 -0.000997729 0.00785506
6 85 0.000371712 0.00594575
6 86 -0.000136666 0.00763336
6 87 -0.00240175 0.00964587
6 88 -0.000625936 0.0070806
6 89 0.000456614 0.00655002
6 90 -0.00287592 0.0106557
6 91 -0.00370813 0.0103758
6 92 0.000565427 0.00637089
6 93 -0.00371484 0.00978031
6 94 -0.00765409 0.0131867
6 95 -0.00240938 0.00846908
6 96 0.00414587 0.00933522
6 97 -0.0123485 0.0119353
6 98 0.0112025 0.00175652
6 99 0.0941057 -0.000566794
6 100 0.1 0
7 0 0 0
7 1 8.58351e-006 -1.22388e-006
7 2 5.32906e-006 -6.13747e-006
7 3 -8.83362e-006 -7.96211e-006
7 4 -2.42226e-005 6.5819e-006
7 5 -4.8195e-005 2.04929e-005
7 6 -5.93478e-005 2.88728e-005
7 7 -8.56533e-005 5.81009e-005
7 8 -0.000110004 9.86978e-005
7 9 -0.000124759 0.000126137
7 10 -0.000128565 0.000159799
7 11 -0.000152413 0.000218779
7 12 -0.000161135 0.000268049
7 13 -0.000159827 0.000303999
7 14 -0.000161389 0.000362897
7 15 -0.000180632 0.000432642
7 16 -0.00017226 0.000475106
7 17 -0.000167202 0.000522925
7 18 -0.000174174 0.000599015
7 19 -0.000185758 0.000659405
7 20 -0.000166397 0.000695756
7 21 -0.000170571 0.0007623
7 22 -0.000181721 0.000840281
7 23 -0.000182906 0.000882491
7 24 -0.00016322 0.000927055
7 25 -0.000183409 0.00101189
7 26 -0.000191422 0.00107538
7 27 -0.00018447 0.00110798
7 28 -0.000176369 0.0011769
7 29 -0.000211467 0.00126802
7 30 -0.000208188 0.00131021
7 31 -0.000201925 0.00135529
7 32 -0.000214641 0.00145351
7 33 -0.000255968 0.00153309
7 34 -0.00023663 0.00156405
7 35 -0.000245904 0.00164506
7 36 -0.000281417 0.00176076
7 37 -0.000313354 0.00181696
7 38 -0.000281627 0.0018625
7 39 -0.000324757 0.00199094
7 40 -0.000370073 0.00209988
7 41 -0.000375139 0.00213792
7 42 -0.000350696 0.0022312
7 43 -0.000437836 0.00239753
7 44 -0.000458953 0.00247423
7 45 -0.000435704 0.00252359
7 46 -0.000452204 0.00269082
7 47 -0.000562659 0.00285972
7 48 -0.000519219 0.00289597
7 49 -0.000502749 0.00300938
7 50 -0.000579137 0.00324578
7 51 -0.000652735 0.00336437
7 52 -0.000537541 0.0033931
7 53 -0.000589981 0.00362247
7 54 -0.000690605 0.00386875
7 55 -0.000661052 0.00390195
7 56 -0.00052997 0.00400344
7 57 -0.000690297 0.00434873
7 58 -0.000718365 0.0045011
7 59 -0.000574688 0.00448084
7 60 -0.000528273 0.00474196
7 61 -0.000756572 0.00510799
7 62 -0.000603173 0.00508079
7 63 -0.000433095 0.00512257
7 64 -0.000550191 0.00555744
7 65 -0.000712884 0.00576991
7 66 -0.000340271 0.00557915
7 67 -0.000321335 0.00583158
7 68 -0.000574491 0.00631658
7 69 -0.00049292 0.00621338
7 70 -1.64823e-005 0.00601897
7 71 -0.000337523 0.00656183
7 72 -0.000528782 0.00684034
7 73 -9.85956e-005 0.00639676
7 74 0.0001762 0.00646648
7 75 -0.000524354 0.00720527
7 76 -0.000304206 0.00697931
7 77 0.000317284 0.00640412
7 78 -5.19166e-006 0.00700574
7 79 -0.000782048 0.00760081
7 80 0.000151071 0.00668812
7 81 0.000382886 0.00646944
7 82 -0.000687445 0.007678
7 83 -0.000877679 0.00753588
7 84 0.0006337 0.00610808
7 85 -0.000412786 0.00698707
7 86 -0.00172506 0.00831845
7 87 -0.000685803 0.00674329
7 88 0.000466297 0.00579058
7 89 -0.00240449 0.00839737
7 90 -0.00298629 0.00805916
7 91 -0.000727139 0.00509498
7 92 -0.00151817 0.00746966
7 93 -0.00711696 0.00972684
7 94 -0.0027208 0.0048923
7 95 -0.00346683 0.00473674
7 96 -0.00745225 0.0114859
7 97 -0.00694247 0.0147526
7 98 0.0216167 0.00850297
7 99 0.0961697 -0.00019369
7 100 0.1 0
8 0 0 0
8 1 1.10146e-005 -2.01732e-006
8 2 7.67605e-007 -1.37006e-005
8 3 -2.99753e-005 5.91398e-007
8 4 -3.90151e-005 1.82062e-005
8 5 -6.08146e-005 2.23256e-005
8 6 -9.32389e-005 4.14095e-005
8 7 -0.000126044 8.59912e-005
8 8 -0.000138917 0.000117153
8 9 -0.000162618 0.000141445
8 10 -0.000187579 0.000197097
8 11 -0.000200178 0.000259692
8 12 -0.00019995 0.000293381
8 13 -0.000219564 0.000342146
8 14 -0.000228158 0.000422048
8 15 -0.000223463 0.000478404
8 16 -0.000222769 0.000513996
8 17 -0.000240193 0.000589066
8 18 -0.000232808 0.00067056
8 19 -0.000225072 0.00070933
8 20 -0.000232969 0.000759156
8 21 -0.000244248 0.000853012
8 22 -0.000226731 0.000914841
8 23 -0.000230138 0.000944687
8 24 -0.000244846 0.0010215
8 25 -0.00024591 0.00111563
8 26 -0.000230315 0.00115014
8 27 -0.000251802 0.00119431
8 28 -0.000264513 0.00129846
8 29 -0.000258586 0.00137118
8 30 -0.000258102 0.00139142
8 31 -0.000294479 0.00147381
8 32 -0.000297644 0.00158806
8 33 -0.000295625 0.00162788
8 34 -0.000317192 0.00166513
8 35 -0.000358676 0.00179454
8 36 -0.000351249 0.00188979
8 37 -0.000365568 0.00190791
8 38 -0.000407387 0.00199939
8 39 -0.000442848 0.00215843
8 40 -0.000428741 0.00220965
8 41 -0.000469302 0.00224617
8 42 -0.000522096 0.00241425
8 43 -0.000539342 0.00255877
8 44 -0.000527237 0.00256919
8 45 -0.000601136 0.00268464
8 46 -0.000643886 0.00291048
8 47 -0.00063286 0.00298979
8 48 -0.000642082 0.00301364
8 49 -0.00074377 0.00325326
8 50 -0.000741233 0.003463
8 51 -0.000710674 0.00346662
8 52 -0.00076535 0.0036005
8 53 -0.000859125 0.0039385
8 54 -0.000781052 0.00403528
8 55 -0.000771218 0.0040379
8 56 -0.000872078 0.00435655
8 57 -0.000894547 0.00466826
8 58 -0.000750025 0.0046133
8 59 -0.000815579 0.00476241
8 60 -0.000913293 0.00522606
8 61 -0.000809586 0.00533972
8 62 -0.000663666 0.00522872
8 63 -0.00083264 0.00564894
8 64 -0.000833105 0.0060572
8 65 -0.000605051 0.00588191
8 66 -0.00056127 0.00594261
8 67 -0.000797442 0.0065964
8 68 -0.000600631 0.00665603
8 69 -0.000341485 0.00631907
8 70 -0.000496534 0.00678902
8 71 -0.000680123 0.0073808
8 72 -0.000242282 0.00690317
8 73 -0.000144967 0.00679682
8 74 -0.000516682 0.0076914
8 75 -0.000458786 0.0077289
8 76 0.000131987 0.00689911
8 77 -0.000188388 0.00751694
8 78 -0.000630122 0.00838949
8 79 -0.000134558 0.00750762
8 80 0.000307479 0.00704199
8 81 -0.000658438 0.00853307
8 82 -0.000748037 0.00849082
8 83 0.00022969 0.00698332
8 84 -0.000119878 0.00787799
8 85 -0.00165382 0.00949621
8 86 -0.000573306 0.00777553
8 87 0.000234251 0.00697431
8 88 -0.00190039 0.00955925
8 89 -0.00267676 0.00964671
8 90 0.000184809 0.00678035
8 91 -0.00207446 0.00840062
8 92 -0.00499447 0.0107983
8 93 -0.00244153 0.00773174
8 94 -0.000145871 0.00615749
8 95 -0.00867978 0.00982134
8 96 -0.00745769 0.0075357
8 97 0.00135327 0.00162275
8 98 0.0246182 -0.00465375
8 99 0.0964527 -0.00100856
8 100 0.1 0
9 0 0 0
9 1 1.61568e-005 -2.62378e-006
9 2 -1.03583e-005 2.37046e-006
9 3 -3.88026e-005 7.13637e-006
9 4 -4.97256e-005 5.49705e-006
9 5 -8.72331e-005 2.81365e-005
9 6 -0.000125223 6.45674e-005
9 7 -0.000154668 8.58268e-005
9 8 -0.000176963 0.000114631
9 9 -0.000211314 0.000173906
9 10 -0.000233909 0.00022398
9 11 -0.000244651 0.000257295
9 12 -0.00025588 0.000318471
9 13 -0.000277089 0.000395352
9 14 -0.000278744 0.000440097
9 15 -0.00027764 0.00048895
9 16 -0.000285863 0.000574469
9 17 -0.00029563 0.000643148
9 18 -0.000284899 0.000680034
9 19 -0.000285457 0.000752526
9 20 -0.000294703 0.00084316
9 21 -0.000295219 0.000888794
9 22 -0.000283062 0.000933231
9 23 -0.000293188 0.00102902
9 24 -0.000301921 0.00110162
9 25 -0.000297173 0.00113075
9 26 -0.000293477 0.0012026
9 27 -0.000314793 0.00130598
9 28 -0.000320217 0.00134789
9 29 -0.000316742 0.00138643
9 30 -0.000328891 0.00149277
9 31 -0.000358581 0.00157897
9 32 -0.000358841 0.00160005
9 33 -0.000365468 0.00167822
9 34 -0.000397613 0.00180408
9 35 -0.000428273 0.0018559
9 36 -0.00042383 0.00188849
9 37 -0.000452385 0.00202133
9 38 -0.000501426 0.00213544
9 39 -0.000520145 0.00215938
9 40 -0.000519615 0.00224488
9 41 -0.000581515 0.00241979
9 42 -0.000628117 0.00249219
9 43 -0.000625193 0.00252487
9 44 -0.000651479 0.00269327
9 45 -0.00074034 0.00286934
9 46 -0.000750114 0.00289339
9 47 -0.000740357 0.00299548
9 48 -0.000815623 0.00324145
9 49 -0.000889044 0.00336271
9 50 -0.000842068 0.00337741
9 51 -0.000870051 0.00360719
9 52 -0.000977958 0.00386943
9 53 -0.000974032 0.00390143
9 54 -0.000900501 0.0039962
9 55 -0.00100387 0.00435767
9 56 -0.00107089 0.00452969
9 57 -0.000961522 0.00450996
9 58 -0.000938026 0.00478145
9 59 -0.00109357 0.00517752
9 60 -0.00102398 0.00517279
9 61 -0.000860631 0.00522766
9 62 -0.000957093 0.0056913
9 63 -0.00106121 0.00594
9 64 -0.000809242 0.0057814
9 65 -0.000722135 0.00606459
9 66 -0.000932184 0.0065817
9 67 -0.000838866 0.00651997
9 68 -0.000478151 0.00637867
9 69 -0.00062086 0.0069477
9 70 -0.000811657 0.00724438
9 71 -0.000421663 0.0068698
9 72 -0.0001817 0.00699786
9 73 -0.000617632 0.00770438
9 74 -0.000532013 0.00750992
9 75 7.06787e-005 0.00705958
9 76 -0.000148097 0.00762987
9 77 -0.000687001 0.00811459
9 78 -6.57947e-005 0.00735345
9 79 0.000322912 0.00724898
9 80 -0.000549334 0.00818474
9 81 -0.000665116 0.00799724
9 82 0.000412771 0.00693155
9 83 -0.000132577 0.00762706
9 84 -0.00127445 0.00845711
9 85 -0.000423823 0.00725123
9 86 0.000314207 0.00660417
9 87 -0.00156713 0.0083247
9 88 -0.0019853 0.0079756
9 89 -0.000338042 0.00591818
9 90 -0.00117307 0.00713883
9 91 -0.00410462 0.00884014
9 92 -0.00211568 0.00574751
9 93 -0.00151145 0.00516577
9 94 -0.00515595 0.00867572
9 95 -0.00522572 0.0065723
9 96 -0.00179534 0.000206511
9 97 0.000264182 0.00308563
9 98 0.0246154 0.00541066
9 99 0.0970072 -0.000132657
9 100 0.1 0
10 0 0 0
10 1 9.47831e-006 -2.45108e-006
10 2 -1.71743e-005 2.3145e-006
10 3 -4.30008e-005 6.21768e-007
10 4 -7.47162e-005 1.10278e-005
10 5 -0.000124173 4.28963e-005
10 6 -0.000150668 6.87673e-005
10 7 -0.000187663 9.08016e-005
10 8 -0.000233058 0.000137574
10 9 -0.000262558 0.000193939
10 10 -0.000273256 0.000231875
10 11 -0.000303467 0.000280113
10 12 -0.000326848 0.000353789
10 13 -0.000327858 0.000414162
10 14 -0.000329677 0.000458483
10 15 -0.000353563 0.000530549
10 16 -0.000353365 0.000610949
10 17 -0.000341689 0.000661681
10 18 -0.000350105 0.000716987
10 19 -0.000366127 0.000804777
10 20 -0.000348757 0.000873035
10 21 -0.000344235 0.000916352
10 22 -0.000362774 0.000989595
10 23 -0.000365816 0.00107844
10 24 -0.000345074 0.00112661
10 25 -0.000360841 0.00117684
10 26 -0.000381374 0.00126795
10 27 -0.00037214 0.00134232
10 28 -0.00036581 0.00137804
10 29 -0.000402629 0.00145145
10 30 -0.000414314 0.00154999
10 31 -0.000403957 0.00160232
10 32 -0.000425302 0.00164616
10 33 -0.000472701 0.00175048
10 34 -0.000471294 0.00183963
10 35 -0.000476948 0.00187724
10 36 -0.000527951 0.00195431
10 37 -0.000570963 0.00208256
10 38 -0.000561415 0.00214799
10 39 -0.000598228 0.00219557
10 40 -0.000669082 0.00232435
10 41 -0.000693154 0.00245411
10 42 -0.000687582 0.00249605
10 43 -0.000764777 0.00259295
10 44 -0.00083292 0.0027709
10 45 -0.000827005 0.00287157
10 46 -0.000847085 0.0029199
10 47 -0.000959743 0.00310404
10 48 -0.000987499 0.00329329
10 49 -0.000958402 0.00335127
10 50 -0.00103084 0.00346953
10 51 -0.00114177 0.00374044
10 52 -0.00109368 0.00387702
10 53 -0.00108094 0.00393169
10 54 -0.00120824 0.00418242
10 55 -0.00124741 0.00446937
10 56 -0.001128 0.00451367
10 57 -0.00118678 0.00466242
10 58 -0.00131546 0.00503834
10 59 -0.00121946 0.00522102
10 60 -0.00109326 0.00521885
10 61 -0.00124607 0.00555755
10 62 -0.00127399 0.00593397
10 63 -0.00104154 0.00592625
10 64 -0.00100854 0.00601944
10 65 -0.00120654 0.00654149
10 66 -0.00103396 0.00670834
10 67 -0.000757298 0.00655849
10 68 -0.000900135 0.00691223
10 69 -0.00101893 0.00743263
10 70 -0.000617344 0.00721824
10 71 -0.000476926 0.00715969
10 72 -0.000794912 0.0078165
10 73 -0.000667405 0.00798913
10 74 -0.000151691 0.00744607
10 75 -0.000355393 0.00782901
10 76 -0.000699389 0.00853073
10 77 -0.000207011 0.00803187
10 78 0.000133628 0.0075997
10 79 -0.000531238 0.00860893
10 80 -0.000590637 0.0087366
10 81 0.000218991 0.00765635
10 82 -6.25576e-005 0.00805716
10 83 -0.00107816 0.00926261
10 84 -0.000366735 0.00819225
10 85 0.000313442 0.00740328
10 86 -0.00117468 0.00896274
10 87 -0.00176106 0.00918737
10 88 0.000105659 0.0071741
10 89 -0.000870835 0.00794818
10 90 -0.00331352 0.00952731
10 91 -0.00166604 0.00781776
10 92 -7.40299e-005 0.00650476
10 93 -0.00436238 0.00860227
10 94 -0.00484624 0.00759355