Title= "LBM Lid Driven Flow"
VARIABLES="X","Y","U","V"
ZONE T="BOX",I=101,J=101,F=POINT
0 0 0 0
0 1 0 0
0 2 0 0
0 3 0 0
0 4 0 0
0 5 0 0
0 6 0 0
0 7 0 0
0 8 0 0
0 9 0 0
0 10 0 0
0 11 0 0
0 12 0 0
0 13 0 0
0 14 0 0
0 15 0 0
0 16 0 0
0 17 0 0
0 18 0 0
0 19 0 0
0 20 0 0
0 21 0 0
0 22 0 0
0 23 0 0
0 24 0 0
0 25 0 0
0 26 0 0
0 27 0 0
0 28 0 0
0 29 0 0
0 30 0 0
0 31 0 0
0 32 0 0
0 33 0 0
0 34 0 0
0 35 0 0
0 36 0 0
0 37 0 0
0 38 0 0
0 39 0 0
0 40 0 0
0 41 0 0
0 42 0 0
0 43 0 0
0 44 0 0
0 45 0 0
0 46 0 0
0 47 0 0
0 48 0 0
0 49 0 0
0 50 0 0
0 51 0 0
0 52 0 0
0 53 0 0
0 54 0 0
0 55 0 0
0 56 0 0
0 57 0 0
0 58 0 0
0 59 0 0
0 60 0 0
0 61 0 0
0 62 0 0
0 63 0 0
0 64 0 0
0 65 0 0
0 66 0 0
0 67 0 0
0 68 0 0
0 69 0 0
0 70 0 0
0 71 0 0
0 72 0 0
0 73 0 0
0 74 0 0
0 75 0 0
0 76 0 0
0 77 0 0
0 78 0 0
0 79 0 0
0 80 0 0
0 81 0 0
0 82 0 0
0 83 0 0
0 84 0 0
0 85 0 0
0 86 0 0
0 87 0 0
0 88 0 0
0 89 0 0
0 90 0 0
0 91 0 0
0 92 0 0
0 93 0 0
0 94 0 0
0 95 0 0
0 96 0 0
0 97 0 0
0 98 0 0
0 99 0 0
0 100 0.1 0
1 0 0 0
1 1 1.67017e-006 4.83619e-007
1 2 4.31179e-006 -4.06561e-006
1 3 1.59806e-006 -4.95156e-006
1 4 4.24626e-006 6.09556e-006
1 5 3.01343e-006 1.60265e-006
1 6 4.67271e-006 -6.20378e-006
1 7 2.21054e-006 2.25577e-006
1 8 5.89406e-006 6.50129e-006
1 9 3.86741e-006 -8.50778e-006
1 10 5.27224e-006 -5.73794e-006
1 11 4.00014e-006 8.70928e-006
1 12 8.11374e-006 -1.32259e-006
1 13 4.64599e-006 -1.36013e-005
1 14 7.18469e-006 5.66144e-006
1 15 6.99273e-006 1.06513e-005
1 16 1.02186e-005 -1.11651e-005
1 17 5.79267e-006 -3.37439e-006
1 18 1.09259e-005 2.14248e-005
1 19 1.00861e-005 4.23218e-006
1 20 1.1855e-005 -9.28567e-006
1 21 8.23173e-006 2.36383e-005
1 22 1.58678e-005 2.95494e-005
1 23 1.18007e-005 -1.44702e-006
1 24 1.37072e-005 1.77637e-005
1 25 1.22445e-005 5.48312e-005
1 26 1.9957e-005 2.63041e-005
1 27 1.15322e-005 1.4366e-005
1 28 1.69404e-005 6.74492e-005
1 29 1.61924e-005 7.17041e-005
1 30 2.09723e-005 2.65853e-005
1 31 1.0307e-005 6.55538e-005
1 32 2.15166e-005 0.000115367
1 33 1.68807e-005 6.87907e-005
1 34 1.86648e-005 5.49104e-005
1 35 9.79978e-006 0.000138023
1 36 2.51781e-005 0.000131724
1 37 1.21396e-005 6.33387e-005
1 38 1.54649e-005 0.0001196
1 39 1.03338e-005 0.00019188
1 40 2.49834e-005 0.000107562
1 41 3.19467e-006 8.18753e-005
1 42 1.47003e-005 0.000197618
1 43 1.03221e-005 0.000189325
1 44 2.00469e-005 6.48881e-005
1 45 -5.75742e-006 0.0001383
1 46 1.83379e-005 0.000245314
1 47 7.45861e-006 0.000122397
1 48 1.26787e-005 4.62423e-005
1 49 -9.84323e-006 0.000220432
1 50 2.57494e-005 0.000221191
1 51 1.28875e-007 2.4901e-005
1 52 7.87261e-006 9.14721e-005
1 53 -6.05133e-006 0.000285014
1 54 3.35068e-005 0.000110897
1 55 -1.10156e-005 -3.38926e-005
1 56 1.19629e-005 0.000204547
1 57 4.35586e-006 0.000268341
1 58 3.71467e-005 -4.78546e-005
1 59 -2.13653e-005 1.85942e-005
1 60 2.98835e-005 0.000326731
1 61 1.50467e-005 0.000124783
1 62 3.52412e-005 -0.000158967
1 63 -2.24935e-005 0.000204306
1 64 6.15638e-005 0.000345691
1 65 1.72562e-005 -0.000119621
1 66 3.34519e-005 -0.000100811
1 67 -5.30232e-006 0.000445008
1 68 9.95164e-005 0.000153124
1 69 5.55294e-006 -0.000330418
1 70 4.61612e-005 0.000196958
1 71 3.41192e-005 0.000549514
1 72 0.000129838 -0.000258276
1 73 -1.46067e-005 -0.000281909
1 74 9.40298e-005 0.000643867
1 75 8.69708e-005 0.000277165
1 76 0.000139937 -0.000692211
1 77 -2.01364e-005 0.000228037
1 78 0.000195084 0.000901457
1 79 0.000128003 -0.000494957
1 80 0.000134075 -0.000715132
1 81 3.19229e-005 0.00114338
1 82 0.000348608 0.000416212
1 83 0.000125655 -0.00153108
1 84 0.000152869 0.000206785
1 85 0.000201014 0.00182156
1 86 0.000517379 -0.0013588
1 87 7.20131e-005 -0.0019713
1 88 0.000298991 0.00229372
1 89 0.000554476 0.000656322
1 90 0.000626932 -0.00459127
1 91 2.40483e-005 3.07989e-007
1 92 0.00076765 0.00498302
1 93 0.00120027 -0.00540472
1 94 0.000762806 -0.0106493
1 95 2.76073e-005 0.0070093
1 96 0.0024648 0.00324895
1 97 0.0023019 -0.0237645
1 98 -0.00306115 0.0333725
1 99 0.00728026 0.0123469
1 100 0.1 0
2 0 0 0
2 1 -1.81057e-005 -1.19373e-007
2 2 1.49447e-005 1.55377e-005
2 3 -8.32744e-006 1.59832e-005
2 4 1.00125e-005 8.0817e-006
2 5 -9.18435e-006 1.15525e-005
2 6 1.37301e-005 2.51135e-005
2 7 -1.25076e-005 2.21279e-005
2 8 1.34597e-005 1.91419e-005
2 9 -1.12222e-005 3.48358e-005
2 10 7.94702e-006 4.93624e-005
2 11 -1.61233e-005 4.6365e-005
2 12 1.16976e-005 6.38876e-005
2 13 -2.22471e-005 9.78006e-005
2 14 3.13429e-006 0.000113115
2 15 -2.14271e-005 0.000127232
2 16 3.12775e-006 0.000178934
2 17 -3.61102e-005 0.000223928
2 18 1.8698e-006 0.000246527
2 19 -3.41718e-005 0.000300725
2 20 -9.46142e-006 0.000384158
2 21 -4.69107e-005 0.000430847
2 22 -2.59449e-007 0.000483285
2 23 -5.68928e-005 0.000590268
2 24 -1.71492e-005 0.000684741
2 25 -5.47421e-005 0.000738767
2 26 -9.44984e-006 0.000848662
2 27 -8.20471e-005 0.000991409
2 28 -1.17312e-005 0.00107372
2 29 -6.6805e-005 0.00116089
2 30 -2.31001e-005 0.00133105
2 31 -9.51265e-005 0.00146296
2 32 5.51027e-006 0.00153077
2 33 -8.88482e-005 0.00167538
2 34 -2.56467e-005 0.00186127
2 35 -8.81772e-005 0.00193521
2 36 2.4197e-005 0.00201299
2 37 -0.000114684 0.00220282
2 38 -1.89593e-008 0.0023261
2 39 -7.04692e-005 0.00233183
2 40 3.69782e-005 0.00244876
2 41 -0.000129022 0.00261969
2 42 5.43178e-005 0.00261671
2 43 -6.11427e-005 0.00259588
2 44 4.80302e-005 0.00275075
2 45 -0.000124306 0.00281109
2 46 0.000120859 0.00268523
2 47 -7.36173e-005 0.0027073
2 48 6.57267e-005 0.00284574
2 49 -0.000106992 0.0027322
2 50 0.000181613 0.00257077
2 51 -0.000113104 0.00267743
2 52 9.67168e-005 0.00270381
2 53 -8.70293e-005 0.00243797
2 54 0.000222693 0.00237137
2 55 -0.000179489 0.00252376
2 56 0.00015355 0.00235344
2 57 -7.59511e-005 0.00205963
2 58 0.000229562 0.00217847
2 59 -0.000257638 0.00224933
2 60 0.000254726 0.00188007
2 61 -0.000102123 0.00174544
2 62 0.000197678 0.00201965
2 63 -0.000308067 0.00184953
2 64 0.00039886 0.00141723
2 65 -0.000214393 0.00160132
2 66 0.000162904 0.00184161
2 67 -0.000286955 0.00135259
2 68 0.000531719 0.00113518
2 69 -0.000446397 0.00164274
2 70 0.000219933 0.001545
2 71 -0.000200017 0.00088044
2 72 0.000545018 0.00120111
2 73 -0.000749688 0.00176005
2 74 0.000490442 0.00108017
2 75 -0.000164548 0.000684461
2 76 0.00034081 0.00168222
2 77 -0.000945712 0.00174161
2 78 0.00102807 0.000587795
2 79 -0.000436698 0.00110227
2 80 -2.83364e-005 0.00242841
2 81 -0.000754601 0.00141496
2 82 0.00166404 0.00052654
2 83 -0.00134633 0.00243607
2 84 -0.000174951 0.00306037
2 85 8.8327e-005 0.000920591
2 86 0.0017484 0.00176091
2 87 -0.00306367 0.00485461
2 88 0.000806785 0.00327548
2 89 0.001658 0.00113028
2 90 -0.000296184 0.00568802
2 91 -0.00536276 0.00867034
2 92 0.00454736 0.00385034
2 93 0.00462589 0.00393054
2 94 -0.00766156 0.0152901
2 95 -0.00959813 0.0183736
2 96 0.0162364 0.0139935
2 97 -0.0171972 0.0403387
2 98 -0.0257124 0.0348433
2 99 0.0902763 0.000733343
2 100 0.1 0
3 0 0 0
3 1 -7.17048e-006 -1.4297e-006
3 2 1.3367e-006 -5.51951e-006
3 3 3.65702e-006 5.28903e-006
3 4 7.83169e-006 9.20134e-006
3 5 -6.55703e-006 1.02712e-005
3 6 8.04545e-006 1.46176e-005
3 7 2.23376e-006 1.2057e-005
3 8 -9.3917e-007 1.74697e-005
3 9 -1.48914e-005 3.09299e-005
3 10 -2.14423e-007 4.02842e-005
3 11 -1.90765e-005 5.10523e-005
3 12 -2.76212e-005 8.29647e-005
3 13 -3.58953e-005 0.000115213
3 14 -2.58932e-005 0.000143614
3 15 -6.034e-005 0.000192148
3 16 -6.25055e-005 0.000258657
3 17 -6.60042e-005 0.000314187
3 18 -7.07264e-005 0.000383327
3 19 -0.000113967 0.000483072
3 20 -9.81236e-005 0.000581122
3 21 -0.0001102 0.000673874
3 22 -0.000132841 0.000804568
3 23 -0.000166684 0.000951052
3 24 -0.00013315 0.00107951
3 25 -0.000171902 0.00123141
3 26 -0.000196053 0.00142459
3 27 -0.000203211 0.00159871
3 28 -0.000169397 0.00176627
3 29 -0.000238805 0.00198602
3 30 -0.000231062 0.00221056
3 31 -0.000214316 0.00239268
3 32 -0.000202116 0.00260796
3 33 -0.000278937 0.0028662
3 34 -0.000212002 0.00307
3 35 -0.000200346 0.00325115
3 36 -0.000213063 0.00349851
3 37 -0.000257904 0.00372678
3 38 -0.000135618 0.00386696
3 39 -0.000167764 0.00404341
3 40 -0.000179176 0.00426924
3 41 -0.000165376 0.00439375
3 42 -2.70067e-005 0.00446007
3 43 -0.000125823 0.00461879
3 44 -8.96377e-005 0.00474974
3 45 -2.79269e-005 0.0047344
3 46 7.07706e-005 0.00475025
3 47 -8.15986e-005 0.00486447
3 48 4.555e-005 0.00484308
3 49 9.92381e-005 0.00471161
3 50 0.000120891 0.00471991
3 51 -3.11259e-005 0.00475196
3 52 0.000196575 0.00456329
3 53 0.000157132 0.00439826
3 54 0.00012136 0.00443276
3 55 3.95475e-005 0.00433265
3 56 0.00031875 0.00402463
3 57 0.000115909 0.0039419
3 58 0.000113869 0.0039791
3 59 0.000133841 0.00370181
3 60 0.000364742 0.00340384
3 61 -2.91704e-006 0.0034848
3 62 0.000157788 0.00341299
3 63 0.000221418 0.00298445
3 64 0.000303722 0.002887
3 65 -0.000129214 0.00308141
3 66 0.000287644 0.00275356
3 67 0.000231677 0.00235199
3 68 0.00014506 0.00260012
3 69 -0.000166878 0.00267367
3 70 0.000477237 0.00206193
3 71 7.53076e-005 0.00201796
3 72 -3.42813e-005 0.00253219
3 73 -3.82772e-005 0.00215432
3 74 0.000622834 0.00153019
3 75 -0.00029537 0.00215584
3 76 -8.74004e-005 0.00249121
3 77 0.000246925 0.00150799
3 78 0.000558475 0.00150389
3 79 -0.000804346 0.00274376
3 80 0.000151923 0.00216721
3 81 0.000521297 0.000996723
3 82 9.60997e-005 0.00239523
3 83 -0.00120967 0.00342025
3 84 0.000811739 0.00135551
3 85 0.000391334 0.00135366
3 86 -0.000960065 0.00445844
3 87 -0.0011804 0.00342455
3 88 0.00200999 0.000308349
3 89 -0.00081068 0.00394971
3 90 -0.00297013 0.00733213
3 91 -0.000854615 0.0014899
3 92 0.00405907 0.000301774
3 93 -0.0031524 0.0119332
3 94 -0.00968496 0.0105568
3 95 -0.00372347 -0.00312414
3 96 -0.0049309 0.015762
3 97 -0.0340315 0.0278659
3 98 0.0101633 0.012568
3 99 0.10075 -7.85479e-005
3 100 0.1 0
4 0 0 0
4 1 -1.47131e-006 8.09456e-007
4 2 -3.9513e-006 5.74977e-006
4 3 -7.69345e-007 1.48331e-006
4 4 -1.88081e-007 1.22083e-005
4 5 8.73097e-007 1.15229e-005
4 6 -1.30188e-006 5.4172e-006
4 7 -1.12978e-006 1.66214e-005
4 8 -1.21709e-005 3.18547e-005
4 9 -1.80317e-005 2.84739e-005
4 10 -2.85919e-005 4.33842e-005
4 11 -4.12281e-005 8.41261e-005
4 12 -6.06034e-005 0.000111796
4 13 -6.9356e-005 0.000134814
4 14 -9.14551e-005 0.000201314
4 15 -0.000111984 0.000276492
4 16 -0.000132386 0.000327751
4 17 -0.000147514 0.000410165
4 18 -0.000181841 0.000538901
4 19 -0.000200984 0.00064267
4 20 -0.00022336 0.000742753
4 21 -0.000250055 0.000910209
4 22 -0.000287682 0.0010877
4 23 -0.000298466 0.00122265
4 24 -0.00033009 0.00140652
4 25 -0.000362446 0.00165478
4 26 -0.000387833 0.0018538
4 27 -0.000391838 0.00204196
4 28 -0.0004343 0.00232522
4 29 -0.000451389 0.00260894
4 30 -0.000455086 0.00281143
4 31 -0.00045867 0.00307906
4 32 -0.000497446 0.00342487
4 33 -0.000475996 0.00367684
4 34 -0.000463797 0.0038882
4 35 -0.000466836 0.00422888
4 36 -0.0004765 0.00454541
4 37 -0.000410737 0.00471688
4 38 -0.000399414 0.00495418
4 39 -0.000389244 0.00530155
4 40 -0.000354241 0.00548264
4 41 -0.000263468 0.00557522
4 42 -0.000266859 0.00583631
4 43 -0.000227882 0.00607425
4 44 -0.000158266 0.00606311
4 45 -7.33319e-005 0.00612884
4 46 -9.62857e-005 0.00636321
4 47 -2.28059e-005 0.00637819
4 48 5.30404e-005 0.0062171
4 49 0.000105026 0.00631809
4 50 6.47506e-005 0.0064224
4 51 0.000172197 0.0061795
4 52 0.000220167 0.00600614
4 53 0.000221487 0.00614785
4 54 0.000180958 0.00600707
4 55 0.000321366 0.00560795
4 56 0.000299701 0.00557772
4 57 0.000256348 0.00566193
4 58 0.000255535 0.0052345
4 59 0.000406517 0.00490479
4 60 0.000271067 0.00506882
4 61 0.000241251 0.00492271
4 62 0.000312921 0.00432621
4 63 0.000400692 0.00431124
4 64 0.00015134 0.00452753
4 65 0.000246128 0.004025
4 66 0.00034399 0.0035584
4 67 0.000267089 0.00395733
4 68 1.2285e-005 0.00391268
4 69 0.00032322 0.00314393
4 70 0.000273311 0.00319072
4 71 1.0539e-005 0.0037967
4 72 -3.31287e-005 0.00318601
4 73 0.000435686 0.00257234
4 74 -3.02205e-006 0.00335845
4 75 -0.000256972 0.00362659
4 76 9.90707e-005 0.0024611
4 77 0.000408447 0.00267708
4 78 -0.00051879 0.00395311
4 79 -0.000305216 0.00324334
4 80 0.000346194 0.00213485
4 81 -6.80194e-005 0.00374888
4 82 -0.00113302 0.00460789
4 83 0.000127815 0.00272434
4 84 0.00037139 0.00292979
4 85 -0.001332 0.0057944
4 86 -0.001449 0.00488034
4 87 0.0010889 0.00270386
4 88 -0.000536041 0.00579331
4 89 -0.00340545 0.00836066
4 90 -0.000709114 0.00459644
4 91 0.00143981 0.00453934
4 92 -0.00383861 0.0116711
4 93 -0.00488535 0.0106315
4 94 -0.000349965 0.00446014
4 95 -0.00914367 0.0135636
4 96 -0.0148848 0.0135187
4 97 -0.00744963 -0.00827734
4 98 0.0115146 -0.0172156
4 99 0.0929356 -0.00110271
4 100 0.1 0
5 0 0 0
5 1 -1.85647e-006 -7.35319e-007
5 2 3.31736e-006 -8.17841e-006
5 3 -6.52519e-006 -1.58726e-006
5 4 -5.52298e-007 5.0098e-006
5 5 9.84881e-006 2.85474e-006
5 6 -2.63357e-007 3.31307e-006
5 7 -1.02086e-005 7.20448e-006
5 8 -1.23612e-005 1.33724e-005
5 9 -2.4296e-005 2.32444e-005
5 10 -5.59837e-005 4.75033e-005
5 11 -7.07973e-005 7.4946e-005
5 12 -8.61782e-005 0.0001081
5 13 -0.00012177 0.000159294
5 14 -0.000161719 0.000226072
5 15 -0.000175192 0.000293097
5 16 -0.000211357 0.000379074
5 17 -0.00026362 0.000491114
5 18 -0.000297304 0.00060777
5 19 -0.000316628 0.000732171
5 20 -0.000379068 0.000892385
5 21 -0.000429381 0.00106887
5 22 -0.000451516 0.00124119
5 23 -0.000490293 0.00144418
5 24 -0.0005663 0.00168357
5 25 -0.000590981 0.00191504
5 26 -0.000609992 0.00215344
5 27 -0.000669416 0.00244354
5 28 -0.00072517 0.00273973
5 29 -0.000711687 0.00301222
5 30 -0.000740927 0.00332229
5 31 -0.000795389 0.00367337
5 32 -0.00079468 0.0039812
5 33 -0.000752391 0.00428221
5 34 -0.000792179 0.00464307
5 35 -0.000797868 0.00498878
5 36 -0.00073029 0.00526167
5 37 -0.0006828 0.00557497
5 38 -0.00071302 0.00592415
5 39 -0.000637634 0.00618387
5 40 -0.000529879 0.00639563
5 41 -0.000498628 0.00668693
5 42 -0.000491138 0.00693498
5 43 -0.000336963 0.00705731
5 44 -0.000242502 0.00720404
5 45 -0.000235257 0.00741682
5 46 -0.000168292 0.00749036
5 47 2.33553e-005 0.00747892
5 48 4.54967e-005 0.00756449
5 49 4.66964e-005 0.00763831
5 50 0.000178514 0.00751891
5 51 0.000333234 0.00742613
5 52 0.000252188 0.00745012
5 53 0.000299123 0.00734598
5 54 0.000464317 0.00708218
5 55 0.000498782 0.00698615
5 56 0.00035335 0.00693357
5 57 0.000504427 0.00664982
5 58 0.00061368 0.00635134
5 59 0.000493023 0.00631792
5 60 0.000397331 0.00614487
5 61 0.000649686 0.00573743
5 62 0.000578313 0.00555209
5 63 0.000377579 0.00557402
5 64 0.000454036 0.0052205
5 65 0.000689367 0.00483596
5 66 0.000362055 0.00488166
5 67 0.000272808 0.00483111
5 68 0.000536487 0.00429914
5 69 0.000546597 0.00417464
5 70 4.89679e-005 0.00442342
5 71 0.000291615 0.00409562
5 72 0.000552211 0.00356214
5 73 0.000175654 0.0039217
5 74 -0.000193235 0.00410607
5 75 0.000454362 0.00339444
5 76 0.000322002 0.00325842
5 77 -0.000353899 0.00409103
5 78 -0.000181211 0.00375044
5 79 0.000606845 0.00289747
5 80 -0.000323859 0.00365711
5 81 -0.000841433 0.00446867
5 82 0.000145536 0.00320536
5 83 0.000379675 0.00300197
5 84 -0.0014059 0.0049005
5 85 -0.0010349 0.00461955
5 86 0.000556757 0.00256389
5 87 -0.000768208 0.0043573
5 88 -0.00274642 0.00672599
5 89 -0.000770453 0.00405923
5 90 0.000313849 0.00281111
5 91 -0.00341046 0.00779947
5 92 -0.00500378 0.00754728
5 93 -0.000222037 0.00335633
5 94 -0.00363327 0.00884689
5 95 -0.0135765 0.00790355
5 96 0.00135265 -0.00336576
5 97 -0.00646518 0.000197971
5 98 0.00429182 0.00775168
5 99 0.0878478 0.00116972
5 100 0.1 0
6 0 0 0
6 1 -4.96741e-006 5.41856e-007
6 2 7.8881e-007 1.70618e-005
6 3 -2.49762e-006 1.14058e-005
6 4 3.08594e-006 -2.66664e-006
6 5 6.3096e-007 3.40351e-007
6 6 -3.03196e-007 1.48494e-005
6 7 -1.09735e-005 1.02325e-005
6 8 -2.58478e-005 1.30977e-005
6 9 -5.05632e-005 4.2021e-005
6 10 -7.38424e-005 6.88047e-005
6 11 -0.00010532 8.52787e-005
6 12 -0.00014267 0.000138283
6 13 -0.000184387 0.000211736
6 14 -0.000221221 0.000268241
6 15 -0.000270843 0.00034298
6 16 -0.00032472 0.000469039
6 17 -0.000373767 0.000588122
6 18 -0.000422478 0.000697448
6 19 -0.000490746 0.000863422
6 20 -0.000549831 0.00106139
6 21 -0.000600621 0.0012271
6 22 -0.000664449 0.00142342
6 23 -0.000741472 0.00169128
6 24 -0.000788689 0.00194082
6 25 -0.000841368 0.00216878
6 26 -0.000913853 0.0024773
6 27 -0.000973206 0.00281875
6 28 -0.00099477 0.0030974
6 29 -0.00104819 0.00341103
6 30 -0.0011022 0.00381399
6 31 -0.00111357 0.00416726
6 32 -0.00110625 0.00446603
6 33 -0.00114738 0.00486556
6 34 -0.00114413 0.00528672
6 35 -0.00109457 0.00558775
6 36 -0.00106421 0.00590802
6 37 -0.00106824 0.00634097
6 38 -0.000982401 0.00667133
6 39 -0.000889494 0.00688886
6 40 -0.000843114 0.00722262
6 41 -0.000787297 0.00758458
6 42 -0.000630897 0.00773741
6 43 -0.000534595 0.00788826
6 44 -0.000473202 0.00819577
6 45 -0.000357728 0.00836698
6 46 -0.000178827 0.00833144
6 47 -0.000117066 0.00846234
6 48 -3.86194e-005 0.00865992
6 49 0.000107355 0.00856545
6 50 0.000251349 0.00842663
6 51 0.000259731 0.0085637
6 52 0.000355633 0.00853973
6 53 0.000489809 0.00821327
6 54 0.000556479 0.00811507
6 55 0.000516227 0.00820741
6 56 0.000633669 0.00788565
6 57 0.000714738 0.00749879
6 58 0.000684238 0.00754582
6 59 0.000630232 0.00745724
6 60 0.0007767 0.00689201
6 61 0.000755475 0.00669685
6 62 0.000643071 0.00684158
6 63 0.000643594 0.00643414
6 64 0.000794104 0.00586704
6 65 0.000612131 0.00604138
6 66 0.000502088 0.00604838
6 67 0.000617562 0.00533921
6 68 0.00066765 0.00513976
6 69 0.000316398 0.00560255
6 70 0.000371334 0.0051701
6 71 0.000557583 0.00447025
6 72 0.000346304 0.00492523
6 73 -3.35797e-005 0.00525354
6 74 0.000342599 0.00429259
6 75 0.00036442 0.00418552
6 76 -0.000187079 0.00518971
6 77 -0.000272062 0.00478905
6 78 0.000394333 0.00372302
6 79 -0.000155971 0.00476242
6 80 -0.000829944 0.00560347
6 81 -0.000242053 0.00418315
6 82 0.000281923 0.00402031
6 83 -0.00121875 0.00616323
6 84 -0.00128674 0.00568919
6 85 4.92763e-005 0.00387971
6 86 -0.000607845 0.0058222
6 87 -0.00286823 0.00784586
6 88 -0.00100905 0.00524313
6 89 -4.54494e-005 0.00499182
6 90 -0.00351627 0.00936372
6 91 -0.00423222 0.00904008
6 92 5.22325e-005 0.00519832
6 93 -0.00444412 0.00899277
6 94 -0.00836806 0.0124377
6 95 -0.00301392 0.00782115
6 96 0.00338114 0.00928904
6 97 -0.0127727 0.0121966
6 98 0.011085 0.00180613
6 99 0.094119 -0.000566486
6 100 0.1 0
7 0 0 0
7 1 -2.62052e-006 -1.09728e-006
7 2 9.0862e-008 -8.91433e-006
7 3 4.98373e-006 -4.5178e-006
7 4 8.40755e-006 3.59147e-006
7 5 -2.65969e-006 2.82728e-006
7 6 1.31853e-006 8.93999e-007
7 7 -1.04646e-005 5.81434e-006
7 8 -4.03324e-005 2.24322e-005
7 9 -7.27377e-005 3.73385e-005
7 10 -9.50403e-005 6.21843e-005
7 11 -0.000145425 0.000105706
7 12 -0.000202372 0.000160548
7 13 -0.000246666 0.000216849
7 14 -0.000296578 0.00029921
7 15 -0.000377775 0.000405467
7 16 -0.000441794 0.000514871
7 17 -0.000497207 0.000638455
7 18 -0.000578893 0.00080367
7 19 -0.000673857 0.000981814
7 20 -0.00073274 0.00115996
7 21 -0.000809664 0.00137794
7 22 -0.000913759 0.00163569
7 23 -0.000996832 0.00188457
7 24 -0.00104976 0.00215065
7 25 -0.00114963 0.00247715
7 26 -0.0012423 0.00281172
7 27 -0.00128993 0.00312646
7 28 -0.00133961 0.00349227
7 29 -0.00143664 0.00390459
7 30 -0.00147073 0.00427576
7 31 -0.00147408 0.00464744
7 32 -0.00151235 0.00509141
7 33 -0.00155674 0.00552086
7 34 -0.00150113 0.0058792
7 35 -0.00146864 0.00628639
7 36 -0.00146985 0.00673725
7 37 -0.00141885 0.00709213
7 38 -0.00128151 0.00740224
7 39 -0.00122921 0.00780001
7 40 -0.00116511 0.00815141
7 41 -0.00101494 0.00836634
7 42 -0.000839543 0.00861691
7 43 -0.000784517 0.0089327
7 44 -0.000643838 0.00909242
7 45 -0.000434321 0.00916678
7 46 -0.00028213 0.00935339
7 47 -0.000235973 0.00950402
7 48 -2.58382e-005 0.00944735
7 49 0.000171192 0.00943564
7 50 0.000244657 0.0095346
7 51 0.000293386 0.00946439
7 52 0.00054786 0.00925012
7 53 0.000640493 0.00921483
7 54 0.000624677 0.00917998
7 55 0.000717365 0.0088968
7 56 0.000951005 0.00863977
7 57 0.00086358 0.00860968
7 58 0.000832615 0.00839543
7 59 0.000994125 0.00798538
7 60 0.0010923 0.00781175
7 61 0.000839487 0.00776034
7 62 0.000927447 0.00735391
7 63 0.00108734 0.00697591
7 64 0.000947501 0.00696613
7 65 0.000682401 0.0068048
7 66 0.000970293 0.00626849
7 67 0.000940164 0.00611943
7 68 0.000592522 0.00623373
7 69 0.000550689 0.00585025
7 70 0.000933079 0.00536808
7 71 0.000510681 0.00559192
7 72 0.00020751 0.00562343
7 73 0.000529998 0.00499625
7 74 0.000676755 0.00487108
7 75 -0.000139423 0.0054156
7 76 1.13299e-005 0.00505393
7 77 0.000518404 0.00439667
7 78 3.67712e-005 0.00492893
7 79 -0.000793415 0.00542956
7 80 0.000108629 0.00446938
7 81 0.000179022 0.00429821
7 82 -0.00101998 0.00553339
7 83 -0.00115886 0.00534176
7 84 0.000292405 0.00398351
7 85 -0.000959023 0.00503356
7 86 -0.00228463 0.00639513
7 87 -0.00113063 0.00482416
7 88 -0.000148501 0.00411185
7 89 -0.00317718 0.00691623
7 90 -0.00361805 0.00656875
7 91 -0.00138106 0.00376722
7 92 -0.00245176 0.00649139
7 93 -0.00790759 0.00884608
7 94 -0.00341988 0.00407761
7 95 -0.00456086 0.00422715
7 96 -0.00857442 0.0111902
7 97 -0.00745883 0.014584
7 98 0.0215596 0.00852614
7 99 0.0962385 -0.000182699
7 100 0.1 0
8 0 0 0
8 1 -3.50923e-006 9.1373e-007
8 2 3.91547e-006 7.60675e-006
8 3 -2.05136e-006 5.22202e-007
8 4 4.46658e-006 7.98478e-006
8 5 5.06244e-006 5.44451e-006
8 6 -4.69872e-006 3.133e-006
8 7 -2.89949e-005 1.94041e-005
8 8 -5.21955e-005 4.11323e-005
8 9 -8.99831e-005 5.02345e-005
8 10 -0.000142115 8.45985e-005
8 11 -0.000198497 0.000144543
8 12 -0.000252511 0.00019832
8 13 -0.00032553 0.000259109
8 14 -0.000407727 0.000366882
8 15 -0.000482012 0.000484699
8 16 -0.000561277 0.000594944
8 17 -0.000664905 0.000746724
8 18 -0.000761843 0.000943376
8 19 -0.00084698 0.00112687
8 20 -0.000953418 0.00132881
8 21 -0.00107565 0.00159815
8 22 -0.00116828 0.00187951
8 23 -0.00126335 0.00214462
8 24 -0.00138841 0.00247176
8 25 -0.00149783 0.00285242
8 26 -0.00156675 0.00320158
8 27 -0.0016655 0.0035678
8 28 -0.00177318 0.00401787
8 29 -0.00182718 0.00446018
8 30 -0.00185847 0.00485495
8 31 -0.00193565 0.00531789
8 32 -0.00197094 0.00582598
8 33 -0.00194016 0.00625287
8 34 -0.00192591 0.00666714
8 35 -0.00194207 0.00717151
8 36 -0.00186291 0.00762431
8 37 -0.00175141 0.00796819
8 38 -0.00169134 0.00836829
8 39 -0.00161348 0.00881191
8 40 -0.0014214 0.00910057
8 41 -0.00127056 0.00933609
8 42 -0.00116928 0.00967814
8 43 -0.000993118 0.00994797
8 44 -0.000743136 0.0100268
8 45 -0.00060872 0.0101775
8 46 -0.000469661 0.0104039
8 47 -0.000231192 0.0104241
8 48 -7.31927e-006 0.0103396
8 49 7.51363e-005 0.0104461
8 50 0.000248165 0.0104846
8 51 0.000480765 0.0102591
8 52 0.000608434 0.0101295
8 53 0.000641413 0.0101919
8 54 0.000835194 0.00997556
8 55 0.000985924 0.00961446
8 56 0.000992755 0.00955874
8 57 0.00100844 0.00949694
8 58 0.00119547 0.00902938
8 59 0.00120459 0.00873418
8 60 0.00111907 0.0087735
8 61 0.00116262 0.0084667
8 62 0.00129745 0.00790057
8 63 0.00113456 0.00786853
8 64 0.00103901 0.00786419
8 65 0.00114241 0.00727611
8 66 0.00114768 0.00691253
8 67 0.000837038 0.00717312
8 68 0.00085835 0.00687858
8 69 0.000982331 0.00619783
8 70 0.000762093 0.00633876
8 71 0.000431388 0.00662848
8 72 0.000677145 0.00589293
8 73 0.000655013 0.00556712
8 74 0.000183685 0.00624525
8 75 7.50642e-005 0.00607599
8 76 0.000504814 0.00512437
8 77 6.90282e-005 0.00565967
8 78 -0.000476572 0.00639658
8 79 -0.000107721 0.00541409
8 80 0.000188875 0.0049858
8 81 -0.000881961 0.00648206
8 82 -0.0010195 0.00634876
8 83 -0.000142025 0.0048795
8 84 -0.000648308 0.00594512
8 85 -0.00221754 0.00757313
8 86 -0.00112984 0.00582232
8 87 -0.000463132 0.00523094
8 88 -0.00271669 0.00802388
8 89 -0.00343682 0.00808364
8 90 -0.000610374 0.00536106
8 91 -0.0030595 0.00731923
8 92 -0.00599532 0.0097683
8 93 -0.0033555 0.00676665
8 94 -0.00123794 0.00566255
8 95 -0.00982982 0.00948301
8 96 -0.00843709 0.00698061
8 97 0.000560892 0.00114254
8 98 0.0243831 -0.00484908
8 99 0.0965081 -0.00101387
8 100 0.1 0
9 0 0 0
9 1 -2.08648e-006 -1.32905e-006
9 2 6.8524e-006 -6.95491e-006
9 3 -2.37337e-006 4.04514e-007
9 4 5.80097e-006 1.82084e-006
9 5 8.04394e-006 2.73724e-006
9 6 -1.04192e-005 1.42293e-005
9 7 -4.03983e-005 1.93752e-005
9 8 -6.72348e-005 3.26999e-005
9 9 -0.000117014 6.62266e-005
9 10 -0.000186125 0.000110229
9 11 -0.000249862 0.000151107
9 12 -0.000319646 0.000220473
9 13 -0.000416601 0.000317786
9 14 -0.000514791 0.000417537
9 15 -0.000602229 0.000530395
9 16 -0.000713924 0.000692792
9 17 -0.000841874 0.000873704
9 18 -0.000952306 0.00105429
9 19 -0.00106786 0.00127984
9 20 -0.00121489 0.00155892
9 21 -0.00134984 0.00183439
9 22 -0.00146524 0.00212888
9 23 -0.00160791 0.00249765
9 24 -0.00175928 0.0028906
9 25 -0.00187072 0.00326551
9 26 -0.00198149 0.00369778
9 27 -0.00212118 0.00419688
9 28 -0.00222249 0.00466524
9 29 -0.00228056 0.00512978
9 30 -0.0023625 0.00567807
9 31 -0.00243987 0.00623122
9 32 -0.00243841 0.0067084
9 33 -0.0024257 0.00722487
9 34 -0.00244062 0.00780206
9 35 -0.00239781 0.00828981
9 36 -0.00227864 0.00870862
9 37 -0.00219584 0.0092106
9 38 -0.00211041 0.00968397
9 39 -0.00193341 0.0100019
9 40 -0.00173059 0.0103256
9 41 -0.00159498 0.0107261
9 42 -0.00140711 0.0109724
9 43 -0.00113905 0.0110932
9 44 -0.000917446 0.0113177
9 45 -0.000757918 0.0115246
9 46 -0.000499529 0.0114975
9 47 -0.000217915 0.0114856
9 48 -4.54578e-005 0.0116053
9 49 0.000113107 0.0115545
9 50 0.000396967 0.0113224
9 51 0.000606267 0.0112763
9 52 0.000686623 0.0112525
9 53 0.000847711 0.0109521
9 54 0.00110373 0.0106639
9 55 0.00116162 0.0106296
9 56 0.00116899 0.0104046
9 57 0.00135621 0.00995553
9 58 0.00149688 0.00975594
9 59 0.00137508 0.00968815
9 60 0.00140496 0.00924336
9 61 0.00159363 0.00882123
9 62 0.00151316 0.00877627
9 63 0.00130297 0.00857019
9 64 0.00145694 0.00798691
9 65 0.00151657 0.00778879
9 66 0.00119379 0.00783864
9 67 0.00110285 0.00740387
9 68 0.00135314 0.00688787
9 69 0.00109988 0.00703304
9 70 0.000710939 0.00698251
9 71 0.000923047 0.00634523
9 72 0.00102614 0.00617918
9 73 0.000407395 0.00658487
9 74 0.000311725 0.00618774
9 75 0.000759618 0.00558406
9 76 0.00035509 0.00597874
9 77 -0.000347577 0.00629946
9 78 0.000161155 0.00545614
9 79 0.000372934 0.00532021
9 80 -0.00068345 0.00619768
9 81 -0.000861306 0.00593732
9 82 0.000125412 0.00490847
9 83 -0.00063394 0.00569437
9 84 -0.00186235 0.00651455
9 85 -0.000986551 0.00531049
9 86 -0.000407255 0.00484814
9 87 -0.002474 0.0067035
9 88 -0.00281415 0.00634584
9 89 -0.00120687 0.00443529
9 90 -0.00230073 0.00593509
9 91 -0.00519799 0.00771066
9 92 -0.00311629 0.00470169
9 93 -0.00283276 0.00443282
9 94 -0.00652703 0.00815143
9 95 -0.00628799 0.00611985
9 96 -0.00288133 -7.05833e-006
9 97 -0.000659078 0.00301804
9 98 0.0241948 0.0053809
9 99 0.0969491 -0.000117716
9 100 0.1 0
10 0 0 0
10 1 -3.81223e-006 6.25918e-007
10 2 2.68725e-006 1.76531e-005
10 3 5.30793e-006 9.55913e-006
10 4 7.04058e-006 6.85842e-008
10 5 -6.45369e-006 7.04017e-006
10 6 -1.80248e-005 2.55516e-005
10 7 -4.56821e-005 3.1472e-005
10 8 -9.86971e-005 5.08806e-005
10 9 -0.000161722 9.32427e-005
10 10 -0.000224672 0.000141027
10 11 -0.000310925 0.000190895
10 12 -0.00041786 0.000278299
10 13 -0.000517101 0.00038692
10 14 -0.000623878 0.000498745
10 15 -0.00076057 0.000640442
10 16 -0.000901272 0.000830806
10 17 -0.00102596 0.00103064
10 18 -0.00117749 0.00125027
10 19 -0.00135277 0.00152907
10 20 -0.00150612 0.00184456
10 21 -0.00165411 0.00216513
10 22 -0.00184277 0.00253839
10 23 -0.0020228 0.00297505
10 24 -0.0021616 0.00341811
10 25 -0.00232086 0.00388128
10 26 -0.00250374 0.00441844
10 27 -0.00262983 0.00498057
10 28 -0.00272246 0.00552147
10 29 -0.00285326 0.00610892
10 30 -0.00295444 0.00674683
10 31 -0.00297073 0.00734384
10 32 -0.002987 0.00791838
10 33 -0.00302938 0.00854981
10 34 -0.0029824 0.00915842
10 35 -0.00286853 0.00967823
10 36 -0.00279337 0.0102034
10 37 -0.00270247 0.0107541
10 38 -0.00249153 0.0111938
10 39 -0.00227947 0.0115547
10 40 -0.00212395 0.0119526
10 41 -0.00189536 0.0123
10 42 -0.00157305 0.0124885
10 43 -0.00133679 0.0126704
10 44 -0.001127 0.0128838
10 45 -0.000802144 0.0129552
10 46 -0.000473159 0.0129055
10 47 -0.00028582 0.0129422
10 48 -4.28695e-005 0.0129394
10 49 0.000298728 0.012745
10 50 0.000525276 0.0125575
10 51 0.000640317 0.0124971
10 52 0.000901926 0.0122713
10 53 0.00116119 0.0119093
10 54 0.00123007 0.0117163
10 55 0.00130958 0.0115654
10 56 0.00155747 0.0111401
10 57 0.0016478 0.0107721
10 58 0.00158633 0.0106477
10 59 0.00168359 0.0103485
10 60 0.00185002 0.00981523
10 61 0.00173425 0.00960955
10 62 0.00163548 0.00949977
10 63 0.00176915 0.00900269
10 64 0.00176514 0.00856113
10 65 0.00148561 0.00859312
10 66 0.00147102 0.0083326
10 67 0.00158989 0.00772772
10 68 0.00134406 0.00762617
10 69 0.00104214 0.00776806
10 70 0.00119699 0.00721113
10 71 0.00116007 0.00679811
10 72 0.000689401 0.00713994
10 73 0.00058354 0.00705436
10 74 0.000855069 0.00628788
10 75 0.000477228 0.00646863
10 76 -3.34137e-005 0.00698772
10 77 0.000241976 0.00634553
10 78 0.000366372 0.00584361
10 79 -0.000450345 0.00678418
10 80 -0.000631927 0.00681663
10 81 -4.55718e-006 0.00572242
10 82 -0.000480911 0.00619578
10 83 -0.0015764 0.0073905
10 84 -0.000929175 0.00629948
10 85 -0.000443615 0.00564657
10 86 -0.00206446 0.00734357
10 87 -0.00263738 0.00755536
10 88 -0.000858237 0.00565471
10 89 -0.00204135 0.00669023
10 90 -0.00450343 0.00833916
10 91 -0.00281907 0.00667409
10 92 -0.00143063 0.00570205
10 93 -0.00585989 0.0079905
10 94 -0.00620991 0.0069639
10 95 -0.000726824 0.00542321
10 96 -0.00415356 0.00682358
10 97 -0.000964683 0.00584353
10 98 0.0290129 -0.000748083
10 99 0.0989515 -0.000992506
10 100 0.1 0
11 0 0 0
11 1 -3.30878e-006 -1.30351e-006
11 2 5.70917e-006 -1.33759e-005
11 3 5.92715e-006 -7.25933e-006
11 4 4.97101e-006 1.1152e-005
11 5 -1.01716e-005 1.30562e-005
11 6 -2.62926e-005 1.46502e-005
11 7 -6.474e-005 3.6626e-005
11 8 -0.000127833 7.35712e-005
11 9 -0.000199878 0.000101739
11 10 -0.000281402 0.000154547
11 11 -0.000389392 0.000240757