Title= "LBM Lid Driven Flow"
VARIABLES="X","Y","U","V"
ZONE T="BOX",I=101,J=101,F=POINT
0 0 0 0
0 1 0 0
0 2 0 0
0 3 0 0
0 4 0 0
0 5 0 0
0 6 0 0
0 7 0 0
0 8 0 0
0 9 0 0
0 10 0 0
0 11 0 0
0 12 0 0
0 13 0 0
0 14 0 0
0 15 0 0
0 16 0 0
0 17 0 0
0 18 0 0
0 19 0 0
0 20 0 0
0 21 0 0
0 22 0 0
0 23 0 0
0 24 0 0
0 25 0 0
0 26 0 0
0 27 0 0
0 28 0 0
0 29 0 0
0 30 0 0
0 31 0 0
0 32 0 0
0 33 0 0
0 34 0 0
0 35 0 0
0 36 0 0
0 37 0 0
0 38 0 0
0 39 0 0
0 40 0 0
0 41 0 0
0 42 0 0
0 43 0 0
0 44 0 0
0 45 0 0
0 46 0 0
0 47 0 0
0 48 0 0
0 49 0 0
0 50 0 0
0 51 0 0
0 52 0 0
0 53 0 0
0 54 0 0
0 55 0 0
0 56 0 0
0 57 0 0
0 58 0 0
0 59 0 0
0 60 0 0
0 61 0 0
0 62 0 0
0 63 0 0
0 64 0 0
0 65 0 0
0 66 0 0
0 67 0 0
0 68 0 0
0 69 0 0
0 70 0 0
0 71 0 0
0 72 0 0
0 73 0 0
0 74 0 0
0 75 0 0
0 76 0 0
0 77 0 0
0 78 0 0
0 79 0 0
0 80 0 0
0 81 0 0
0 82 0 0
0 83 0 0
0 84 0 0
0 85 0 0
0 86 0 0
0 87 0 0
0 88 0 0
0 89 0 0
0 90 0 0
0 91 0 0
0 92 0 0
0 93 0 0
0 94 0 0
0 95 0 0
0 96 0 0
0 97 0 0
0 98 0 0
0 99 0 0
0 100 0.1 0
1 0 0 0
1 1 9.08601e-006 -7.45521e-006
1 2 -2.61153e-006 -6.74112e-005
1 3 2.62339e-006 -3.50499e-005
1 4 3.64522e-007 -5.33621e-006
1 5 4.4175e-006 -2.07227e-005
1 6 -7.35825e-007 -3.36155e-005
1 7 1.00756e-006 -1.56121e-005
1 8 6.79793e-007 -2.05746e-005
1 9 -6.94832e-008 -3.83534e-005
1 10 -2.14083e-006 -2.89406e-005
1 11 -1.30637e-006 -1.56497e-005
1 12 -7.01281e-007 -3.56722e-005
1 13 -4.08457e-006 -4.09048e-005
1 14 -2.82267e-006 -1.82469e-005
1 15 -2.81919e-006 -2.1308e-005
1 16 -2.19116e-006 -4.42503e-005
1 17 -6.15326e-006 -2.67852e-005
1 18 -1.45469e-006 -7.0926e-006
1 19 -3.32175e-006 -2.94394e-005
1 20 -2.39374e-006 -3.66738e-005
1 21 -5.18e-006 -1.41464e-006
1 22 1.91251e-006 -3.7216e-006
1 23 -2.9312e-006 -3.25113e-005
1 24 -7.44442e-008 -1.08264e-005
1 25 -1.23852e-006 2.06585e-005
1 26 6.19278e-006 -1.08414e-005
1 27 -1.63687e-006 -2.16914e-005
1 28 5.24693e-006 2.35133e-005
1 29 4.11803e-006 2.48847e-005
1 30 1.01181e-005 -2.06805e-005
1 31 8.11131e-007 6.9421e-006
1 32 1.27198e-005 4.87789e-005
1 33 8.26814e-006 8.26632e-006
1 34 1.28236e-005 -1.74033e-005
1 35 4.24839e-006 4.74957e-005
1 36 2.00035e-005 4.95451e-005
1 37 8.74125e-006 -1.48509e-005
1 38 1.44463e-005 1.3532e-005
1 39 7.7787e-006 8.31398e-005
1 40 2.40197e-005 2.27934e-005
1 41 4.45491e-006 -1.72277e-005
1 42 1.60187e-005 7.17615e-005
1 43 9.58458e-006 9.05529e-005
1 44 2.25076e-005 -1.48052e-005
1 45 -2.9347e-006 2.61261e-005
1 46 1.92499e-005 0.000131414
1 47 7.62819e-006 5.39676e-005
1 48 1.63338e-005 -2.72918e-005
1 49 -8.64732e-006 0.000115453
1 50 2.53474e-005 0.000146618
1 51 7.10033e-007 -1.31221e-005
1 52 1.05211e-005 2.44553e-005
1 53 -7.43176e-006 0.000209254
1 54 3.29542e-005 8.1221e-005
1 55 -1.01768e-005 -5.61662e-005
1 56 1.30163e-005 0.000149621
1 57 2.22715e-006 0.000233029
1 58 3.82539e-005 -4.85466e-005
1 59 -2.03905e-005 1.37579e-007
1 60 3.05776e-005 0.000294618
1 61 1.47758e-005 0.000123986
1 62 3.84633e-005 -0.000150698
1 63 -2.13647e-005 0.000193974
1 64 6.39451e-005 0.000343207
1 65 1.95767e-005 -0.000102119
1 66 3.75452e-005 -8.76603e-005
1 67 -3.66724e-006 0.000456669
1 68 0.000104249 0.00017489
1 69 8.44961e-006 -0.000303788
1 70 4.96769e-005 0.000228049
1 71 3.63501e-005 0.000587071
1 72 0.000134869 -0.000224218
1 73 -1.42028e-005 -0.000238993
1 74 9.64183e-005 0.000702538
1 75 8.85155e-005 0.000325757
1 76 0.000141823 -0.000650672
1 77 -2.36432e-005 0.000299714
1 78 0.000196567 0.000974466
1 79 0.000126016 -0.000454862
1 80 0.000130731 -0.000656869
1 81 2.56224e-005 0.00123779
1 82 0.000348687 0.000469514
1 83 0.000117185 -0.00149873
1 84 0.00014611 0.000294195
1 85 0.000193983 0.00190115
1 86 0.000514208 -0.00135045
1 87 5.71706e-005 -0.00192261
1 88 0.000293295 0.00239887
1 89 0.00054502 0.000694612
1 90 0.000621389 -0.00461297
1 91 9.25195e-006 2.56946e-005
1 92 0.000761447 0.00505423
1 93 0.00117969 -0.00528079
1 94 0.000759717 -0.0105642
1 95 9.65591e-006 0.00698481
1 96 0.00244861 0.00325559
1 97 0.00230352 -0.0238982
1 98 -0.00307573 0.0331747
1 99 0.00726811 0.0123373
1 100 0.1 0
2 0 0 0
2 1 6.30346e-006 8.9901e-007
2 2 9.90075e-006 8.49209e-005
2 3 5.37137e-006 5.48148e-005
2 4 -1.15878e-005 3.75232e-005
2 5 -1.25114e-006 8.1324e-005
2 6 1.18567e-006 0.000120439
2 7 -8.57625e-006 0.000123746
2 8 -3.75113e-006 0.000141731
2 9 -1.72293e-005 0.000184145
2 10 -5.72555e-006 0.000204252
2 11 -2.38033e-005 0.000204645
2 12 -7.56701e-006 0.000233256
2 13 -3.41433e-005 0.000266327
2 14 -1.03955e-005 0.000264895
2 15 -3.71694e-005 0.000267801
2 16 -1.36877e-005 0.000303559
2 17 -4.7622e-005 0.000316123
2 18 -1.08705e-005 0.00030169
2 19 -4.95452e-005 0.000321413
2 20 -1.59339e-005 0.000355971
2 21 -5.43723e-005 0.000345395
2 22 -6.66392e-006 0.000340969
2 23 -5.92867e-005 0.000384266
2 24 -9.03583e-006 0.000404006
2 25 -5.51546e-005 0.000384481
2 26 1.34543e-006 0.000414868
2 27 -6.43961e-005 0.000470803
2 28 7.39165e-006 0.000468253
2 29 -5.5046e-005 0.000469135
2 30 1.18492e-005 0.000542436
2 31 -6.56267e-005 0.000585997
2 32 2.81799e-005 0.000571893
2 33 -6.08387e-005 0.000622416
2 34 2.31225e-005 0.000717936
2 35 -6.73839e-005 0.000726565
2 36 4.57908e-005 0.00073156
2 37 -7.79297e-005 0.000838705
2 38 3.45982e-005 0.000911566
2 39 -7.49077e-005 0.000886112
2 40 5.40109e-005 0.000947115
2 41 -0.000107402 0.00107908
2 42 4.92086e-005 0.00108444
2 43 -9.29729e-005 0.0010616
2 44 5.07572e-005 0.00119459
2 45 -0.000142352 0.0012839
2 46 7.26697e-005 0.00121416
2 47 -0.000126885 0.00125599
2 48 4.26744e-005 0.00142705
2 49 -0.000168488 0.0014042
2 50 0.000106118 0.00131734
2 51 -0.000181675 0.00146945
2 52 4.83854e-005 0.00158735
2 53 -0.000175285 0.00143794
2 54 0.000137961 0.0014453
2 55 -0.000255413 0.00167929
2 56 9.40951e-005 0.00163457
2 57 -0.000172084 0.00144612
2 58 0.000147704 0.00164385
2 59 -0.000329379 0.00182786
2 60 0.000198114 0.0015778
2 61 -0.000197181 0.00152849
2 62 0.000126923 0.00189785
2 63 -0.000366288 0.00184396
2 64 0.000348723 0.00149996
2 65 -0.000306015 0.0017628
2 66 0.000110243 0.00210538
2 67 -0.000330145 0.00170409
2 68 0.000484191 0.00154772
2 69 -0.0005316 0.00213452
2 70 0.00019106 0.00211991
2 71 -0.000232557 0.0015036
2 72 0.000496197 0.00187095
2 73 -0.000822909 0.00249906
2 74 0.000490054 0.00186438
2 75 -0.00019255 0.00148455
2 76 0.000289832 0.00251751
2 77 -0.000998956 0.00262274
2 78 0.00105926 0.00147724
2 79 -0.000470109 0.00198348
2 80 -7.58197e-005 0.00332688
2 81 -0.000776196 0.00233366
2 82 0.00171899 0.00142783
2 83 -0.00140037 0.00330495
2 84 -0.00020033 0.00392597
2 85 0.000108175 0.00178859
2 86 0.00180605 0.00258244
2 87 -0.00314572 0.00561326
2 88 0.00081455 0.00403637
2 89 0.00170942 0.00187937
2 90 -0.000206726 0.00630854
2 91 -0.00546032 0.0092067
2 92 0.00449377 0.00447412
2 93 0.00463457 0.00452059
2 94 -0.00744535 0.0156285
2 95 -0.00968637 0.0186482
2 96 0.0163695 0.0141838
2 97 -0.0170067 0.0402899
2 98 -0.02585 0.034787
2 99 0.0901414 0.000743602
2 100 0.1 0
3 0 0 0
3 1 -1.41606e-005 -5.04152e-006
3 2 -2.82782e-005 -1.88653e-005
3 3 -3.40894e-008 5.39956e-005
3 4 -3.14231e-005 9.28774e-005
3 5 -4.17297e-005 0.000119654
3 6 -3.26701e-005 0.000152246
3 7 -3.83077e-005 0.000192633
3 8 -5.34596e-005 0.000238721
3 9 -5.36947e-005 0.000284111
3 10 -4.16394e-005 0.000316848
3 11 -5.83147e-005 0.000355978
3 12 -6.12787e-005 0.000404479
3 13 -5.72721e-005 0.000438106
3 14 -4.80846e-005 0.000461933
3 15 -7.28005e-005 0.000504144
3 16 -6.09361e-005 0.000544183
3 17 -5.8349e-005 0.000561136
3 18 -5.70493e-005 0.000587201
3 19 -8.2322e-005 0.000633226
3 20 -5.40676e-005 0.000658087
3 21 -6.31096e-005 0.000670941
3 22 -6.75034e-005 0.000712638
3 23 -8.33868e-005 0.000757236
3 24 -4.50066e-005 0.000771331
3 25 -7.51296e-005 0.000801263
3 26 -7.35057e-005 0.000861853
3 27 -7.60483e-005 0.000898757
3 28 -4.1248e-005 0.000918946
3 29 -9.30599e-005 0.000981755
3 30 -6.93317e-005 0.0010509
3 31 -6.71609e-005 0.00108061
3 32 -4.90258e-005 0.00112845
3 33 -0.000110913 0.00122224
3 34 -5.44313e-005 0.00128211
3 35 -6.79713e-005 0.00131608
3 36 -6.86065e-005 0.00140466
3 37 -0.000120669 0.0015063
3 38 -3.48085e-005 0.00154371
3 39 -8.85003e-005 0.00160181
3 40 -9.17472e-005 0.00172325
3 41 -0.000116131 0.00179706
3 42 -2.22137e-005 0.00181723
3 43 -0.00013128 0.00191787
3 44 -0.000101856 0.0020375
3 45 -9.82981e-005 0.00205638
3 46 -3.03685e-005 0.00209026
3 47 -0.000184164 0.00223245
3 48 -7.98952e-005 0.00229754
3 49 -8.10993e-005 0.00227067
3 50 -6.55291e-005 0.0023628
3 51 -0.000218381 0.00250707
3 52 -1.90072e-005 0.00247644
3 53 -9.08274e-005 0.00246406
3 54 -0.000113937 0.00263495
3 55 -0.000200606 0.00270346
3 56 6.07133e-005 0.00259041
3 57 -0.000151027 0.00268228
3 58 -0.000135971 0.00288186
3 59 -0.000118517 0.00279708
3 60 0.000111852 0.00269911
3 61 -0.000256933 0.00294901
3 62 -7.93125e-005 0.00304159
3 63 -5.70808e-006 0.00280261
3 64 8.34902e-005 0.00288101
3 65 -0.000355664 0.00322006
3 66 8.75967e-005 0.00304326
3 67 5.30007e-005 0.00280204
3 68 -3.67177e-005 0.00318271
3 69 -0.00035565 0.00337273
3 70 0.000336201 0.0028817
3 71 -4.96122e-005 0.00294583
3 72 -0.000183473 0.00355125
3 73 -0.000176738 0.00326121
3 74 0.000555329 0.00270417
3 75 -0.000377428 0.00338426
3 76 -0.000209625 0.00378647
3 77 0.000174093 0.00284769
3 78 0.000561867 0.00284545
3 79 -0.000865489 0.00411511
3 80 6.59722e-005 0.00358469
3 81 0.000527349 0.0023883
3 82 0.000142215 0.00374535
3 83 -0.00127109 0.00481127
3 84 0.000792352 0.0027444
3 85 0.000484272 0.00262992
3 86 -0.000907746 0.00569444
3 87 -0.00125575 0.00472615
3 88 0.00207094 0.00152427
3 89 -0.000617192 0.00497103
3 90 -0.00288998 0.00836009
3 91 -0.000953753 0.00260297
3 92 0.00409133 0.00121366
3 93 -0.0029389 0.0126042
3 94 -0.00952683 0.0113149
3 95 -0.00359112 -0.00242357
3 96 -0.00447313 0.0161166
3 97 -0.0338595 0.0281224
3 98 0.0101224 0.0126924
3 99 0.100567 -7.32548e-005
3 100 0.1 0
4 0 0 0
4 1 -1.20393e-006 -2.82e-007
4 2 -5.96461e-005 5.05932e-005
4 3 -2.62068e-005 5.45944e-005
4 4 -4.85312e-005 8.35549e-005
4 5 -6.1726e-005 0.000113463
4 6 -7.70787e-005 0.000148769
4 7 -7.76706e-005 0.000214177
4 8 -8.96453e-005 0.000259584
4 9 -9.10768e-005 0.000285788
4 10 -0.000102 0.000339672
4 11 -0.00010179 0.00040968
4 12 -0.000109573 0.000441169
4 13 -0.000107045 0.000473029
4 14 -0.000117435 0.000542401
4 15 -0.000115624 0.000596477
4 16 -0.000120725 0.000612395
4 17 -0.000118314 0.000662422
4 18 -0.00012949 0.000736185
4 19 -0.000123767 0.000764276
4 20 -0.000128937 0.00078438
4 21 -0.000128096 0.000861797
4 22 -0.000137631 0.000922224
4 23 -0.000127476 0.000932705
4 24 -0.00013651 0.000984659
4 25 -0.00013516 0.00108089
4 26 -0.000141036 0.001114
4 27 -0.00012954 0.00113552
4 28 -0.000144607 0.00123466
4 29 -0.000138789 0.00132351
4 30 -0.000142713 0.00133437
4 31 -0.000134213 0.00140288
4 32 -0.000154445 0.00153571
4 33 -0.000141246 0.00158929
4 34 -0.000148311 0.00160833
4 35 -0.000145353 0.00174351
4 36 -0.000167351 0.00186736
4 37 -0.000145742 0.00187911
4 38 -0.000162551 0.00195092
4 39 -0.000164201 0.00213384
4 40 -0.000182229 0.00219688
4 41 -0.000153707 0.00219819
4 42 -0.00018739 0.00235403
4 43 -0.000186335 0.00252151
4 44 -0.000193675 0.00249898
4 45 -0.000165459 0.00255525
4 46 -0.000219689 0.00277834
4 47 -0.000199249 0.002847
4 48 -0.000195918 0.00277741
4 49 -0.000182215 0.00295213
4 50 -0.000248021 0.00315729
4 51 -0.000187195 0.0030798
4 52 -0.000191532 0.00306991
4 53 -0.000204297 0.00336297
4 54 -0.000253372 0.0034212
4 55 -0.000144196 0.00324982
4 56 -0.000195517 0.00342103
4 57 -0.000223636 0.00371916
4 58 -0.000217302 0.00354004
4 59 -8.77391e-005 0.00344512
4 60 -0.000226847 0.00382876
4 61 -0.000216251 0.00392608
4 62 -0.00013782 0.00356594
4 63 -6.17816e-005 0.00376301
4 64 -0.000286166 0.00420384
4 65 -0.000144796 0.00392525
4 66 -4.9223e-005 0.00364191
4 67 -0.000118527 0.00422794
4 68 -0.00033224 0.00438989
4 69 1.49786e-005 0.00377958
4 70 -3.4195e-005 0.00394986
4 71 -0.000272009 0.00472449
4 72 -0.000281585 0.00426736
4 73 0.000219872 0.00372242
4 74 -0.000203046 0.00459426
4 75 -0.000437069 0.00501102
4 76 -5.96285e-005 0.00390848
4 77 0.000297614 0.00411199
4 78 -0.000615824 0.00547106
4 79 -0.000400224 0.00486742
4 80 0.000285129 0.00370813
4 81 -7.08638e-005 0.00527292
4 82 -0.0011623 0.00623159
4 83 0.000105233 0.00436678
4 84 0.000430704 0.00441974
4 85 -0.00123948 0.00726191
4 86 -0.00144608 0.00644614
4 87 0.00113098 0.00415676
4 88 -0.000355637 0.00703455
4 89 -0.00323917 0.00966297
4 90 -0.000666452 0.00597039
4 91 0.00155276 0.00564676
4 92 -0.00362061 0.012527
4 93 -0.00468766 0.0115763
4 94 -0.000117008 0.00522524
4 95 -0.00877737 0.0139647
4 96 -0.0145608 0.0140898
4 97 -0.00707097 -0.00766267
4 98 0.0117215 -0.0169476
4 99 0.0929228 -0.00109736
4 100 0.1 0
5 0 0 0
5 1 -1.26303e-005 -4.54722e-006
5 2 -7.04538e-005 -2.10641e-005
5 3 -7.16892e-005 4.49872e-005
5 4 -9.12825e-005 0.000102574
5 5 -9.57377e-005 0.000149208
5 6 -0.000124326 0.000193476
5 7 -0.000136794 0.000245302
5 8 -0.0001381 0.000297181
5 9 -0.000147131 0.00036054
5 10 -0.000166929 0.000422666
5 11 -0.000159886 0.0004747
5 12 -0.000161154 0.000525729
5 13 -0.00017363 0.000591564
5 14 -0.000181871 0.000648118
5 15 -0.000166982 0.000690977
5 16 -0.000177657 0.000744317
5 17 -0.00018962 0.000808937
5 18 -0.000185651 0.000852478
5 19 -0.000173963 0.000893855
5 20 -0.000196337 0.00095677
5 21 -0.000198677 0.00101594
5 22 -0.000187011 0.00105212
5 23 -0.000188342 0.00110866
5 24 -0.000215255 0.00118244
5 25 -0.000200906 0.00123441
5 26 -0.000193531 0.0012804
5 27 -0.000210709 0.00136403
5 28 -0.00022906 0.00144155
5 29 -0.000200523 0.00149319
5 30 -0.000211736 0.00156844
5 31 -0.000236454 0.00167588
5 32 -0.00023535 0.00174779
5 33 -0.000206135 0.00181487
5 34 -0.000243766 0.00192763
5 35 -0.000258187 0.00204021
5 36 -0.000236913 0.00210403
5 37 -0.000226472 0.00220354
5 38 -0.000284395 0.00234144
5 39 -0.000267827 0.00243476
5 40 -0.000241138 0.00250026
5 41 -0.000265084 0.00263938
5 42 -0.000319308 0.00277029
5 43 -0.00026016 0.00282998
5 44 -0.000258565 0.00291828
5 45 -0.000313691 0.00308398
5 46 -0.000327599 0.00316828
5 47 -0.000239584 0.00320611
5 48 -0.000296962 0.00333916
5 49 -0.000347466 0.00349258
5 50 -0.000294076 0.00350623
5 51 -0.000224418 0.00356531
5 52 -0.000349577 0.00374349
5 53 -0.000331736 0.00382793
5 54 -0.000227179 0.003789
5 55 -0.000238377 0.00392549
5 56 -0.000385736 0.0041035
5 57 -0.000243798 0.00407383
5 58 -0.000167557 0.00405392
5 59 -0.000288438 0.00429275
5 60 -0.000357497 0.00437733
5 61 -0.000100632 0.00424616
5 62 -0.000172488 0.00434898
5 63 -0.000341636 0.00463249
5 64 -0.000228548 0.00452291
5 65 2.64867e-005 0.00439953
5 66 -0.000274531 0.00469758
5 67 -0.000323678 0.00486391
5 68 -1.87198e-005 0.00453713
5 69 3.10262e-005 0.00462266
5 70 -0.000433538 0.00506201
5 71 -0.000156899 0.00489708
5 72 0.000159655 0.00450602
5 73 -0.000166817 0.00500287
5 74 -0.000521661 0.00532294
5 75 0.000164509 0.00471393
5 76 0.00011077 0.00463542
5 77 -0.000538065 0.00554823
5 78 -0.000377081 0.00530416
5 79 0.000486535 0.00447011
5 80 -0.000359869 0.00521152
5 81 -0.000908735 0.00609017
5 82 6.77202e-005 0.00486848
5 83 0.000435427 0.00457742
5 84 -0.00129975 0.00643638
5 85 -0.00101636 0.00623325
5 86 0.00060418 0.00411746
5 87 -0.00055047 0.00573416
5 88 -0.00255006 0.00809608
5 89 -0.000676129 0.00546806
5 90 0.000518667 0.00403287
5 91 -0.00305833 0.00884903
5 92 -0.00475633 0.00855964
5 93 7.60766e-005 0.00417769
5 94 -0.003047 0.00944465
5 95 -0.0131582 0.00841573
5 96 0.00169147 -0.00318782
5 97 -0.00583394 0.000138506
5 98 0.00457746 0.00767648
5 99 0.0879625 0.00114506
5 100 0.1 0
6 0 0 0
6 1 -1.84223e-005 9.77345e-007
6 2 -9.33069e-005 7.25499e-005
6 3 -8.89403e-005 7.86161e-005
6 4 -0.00012091 8.22433e-005
6 5 -0.000146321 0.000142984
6 6 -0.000162554 0.000209076
6 7 -0.000182754 0.000252006
6 8 -0.000198981 0.000307305
6 9 -0.000211481 0.00038757
6 10 -0.000215478 0.00044063
6 11 -0.000226899 0.000486553
6 12 -0.000236588 0.000565146
6 13 -0.000239802 0.000640227
6 14 -0.000239836 0.000677078
6 15 -0.000251295 0.000735992
6 16 -0.000255829 0.000824106
6 17 -0.000254968 0.000876597
6 18 -0.000257471 0.000909689
6 19 -0.000270717 0.000992702
6 20 -0.000268753 0.00107377
6 21 -0.000268604 0.00110473
6 22 -0.000276505 0.00115969
6 23 -0.000287757 0.00126481
6 24 -0.000279185 0.00132312
6 25 -0.000285855 0.00135445
6 26 -0.000297136 0.00145175
6 27 -0.000301638 0.00155931
6 28 -0.000291495 0.00159374
6 29 -0.000309305 0.00165967
6 30 -0.000317341 0.00179667
6 31 -0.000314977 0.00188005
6 32 -0.000311467 0.00191271
6 33 -0.000338945 0.0020393
6 34 -0.000336629 0.00218488
6 35 -0.000333455 0.00223098
6 36 -0.000342169 0.0023015
6 37 -0.000372045 0.00248437
6 38 -0.000355644 0.0025916
6 39 -0.000360731 0.00261794
6 40 -0.000381126 0.00276184
6 41 -0.000402818 0.00295555
6 42 -0.000373001 0.00299057
6 43 -0.000395589 0.00304813
6 44 -0.000419594 0.00326638
6 45 -0.000421291 0.00339675
6 46 -0.000385164 0.00337298
6 47 -0.000432416 0.00352374
6 48 -0.000442284 0.00375817
6 49 -0.000416653 0.00376443
6 50 -0.000391032 0.00375947
6 51 -0.000461342 0.00402635
6 52 -0.00043088 0.00416633
6 53 -0.000386399 0.00406092
6 54 -0.000394614 0.00418719
6 55 -0.0004676 0.00450074
6 56 -0.000373431 0.00444216
6 57 -0.000344495 0.00434669
6 58 -0.000401022 0.00466726
6 59 -0.000433439 0.00485875
6 60 -0.000276382 0.0046019
6 61 -0.000320976 0.00471008
6 62 -0.000406078 0.00513959
6 63 -0.000344232 0.00502501
6 64 -0.000173879 0.00474898
6 65 -0.000349083 0.00519631
6 66 -0.000385479 0.00546885
6 67 -0.000202648 0.00501398
6 68 -0.000130851 0.00504349
6 69 -0.000439387 0.00573321
6 70 -0.000294423 0.00551936
6 71 -5.44079e-005 0.0049929
6 72 -0.000229851 0.00560458
6 73 -0.00054818 0.00611613
6 74 -9.53377e-005 0.00529624
6 75 -2.13043e-005 0.00526454
6 76 -0.000524812 0.00637926
6 77 -0.000562738 0.00611566
6 78 0.000170939 0.00508189
6 79 -0.000314641 0.00612226
6 80 -0.00095616 0.00706667
6 81 -0.000343712 0.00571006
6 82 0.000264126 0.0054612
6 83 -0.00117677 0.00759059
6 84 -0.0012485 0.00722037
6 85 0.000123378 0.00536137
6 86 -0.000428882 0.00713551
6 87 -0.00267076 0.00918253
6 88 -0.000834875 0.00663603
6 89 0.000214833 0.00620018
6 90 -0.0031576 0.0103876
6 91 -0.0038723 0.0101004
6 92 0.000431908 0.00614738
6 93 -0.00390605 0.00967138
6 94 -0.00774202 0.0130743
6 95 -0.00233009 0.00832533
6 96 0.00423557 0.009289
6 97 -0.0122572 0.0120035
6 98 0.0112843 0.00179144
6 99 0.094189 -0.000574392
6 100 0.1 0
7 0 0 0
7 1 -2.40153e-005 -2.99927e-006
7 2 -0.000126082 -1.25408e-005
7 3 -0.000114396 5.06913e-005
7 4 -0.000157934 0.00011593
7 5 -0.000203483 0.000168065
7 6 -0.000215227 0.000213632
7 7 -0.000238423 0.000281145
7 8 -0.000264161 0.000350808
7 9 -0.000279027 0.000409688
7 10 -0.000278409 0.000473029
7 11 -0.000298804 0.000553236
7 12 -0.000309325 0.000618021
7 13 -0.000306722 0.000671589
7 14 -0.000308927 0.000742725
7 15 -0.00032938 0.000820179
7 16 -0.000325832 0.000870822
7 17 -0.000321707 0.000925851
7 18 -0.000333609 0.00100509
7 19 -0.000349466 0.00107072
7 20 -0.000335378 0.00111332
7 21 -0.000342074 0.00118446
7 22 -0.000360215 0.00126832
7 23 -0.000364865 0.00132061
7 24 -0.000349125 0.0013747
7 25 -0.000372739 0.00147096
7 26 -0.000386002 0.00154997
7 27 -0.000379159 0.0016003
7 28 -0.000374007 0.00168765
7 29 -0.000411006 0.00180225
7 30 -0.000407781 0.00186946
7 31 -0.000398918 0.00194091
7 32 -0.00041293 0.00206898
7 33 -0.000450697 0.00218121
7 34 -0.000426049 0.00224269
7 35 -0.000431316 0.00235787
7 36 -0.000462794 0.00250966
7 37 -0.000484013 0.00259863
7 38 -0.000444242 0.00267518
7 39 -0.000479896 0.00283898
7 40 -0.00051229 0.0029775
7 41 -0.000502651 0.00303906
7 42 -0.000467938 0.00315688
7 43 -0.00053955 0.00334581
7 44 -0.000541136 0.00343266
7 45 -0.000503079 0.00348968
7 46 -0.000502677 0.00366315
7 47 -0.000590165 0.00382749
7 48 -0.000527627 0.00384889
7 49 -0.000494225 0.00394697
7 50 -0.000545299 0.00415833
7 51 -0.000598098 0.00424117
7 52 -0.000466555 0.00422962
7 53 -0.000496066 0.00441172
7 54 -0.000572921 0.00459945
7 55 -0.000533408 0.00457255
7 56 -0.000384175 0.00460543
7 57 -0.000522856 0.00486988
7 58 -0.000543461 0.00494367
7 59 -0.00039824 0.00484482
7 60 -0.000333548 0.00500739
7 61 -0.000558853 0.00527543
7 62 -0.000416732 0.00516671
7 63 -0.000248754 0.00511113
7 64 -0.000362132 0.00543143
7 65 -0.000547125 0.00555617
7 66 -0.000195248 0.00528701
7 67 -0.000189227 0.00543062
7 68 -0.000462006 0.00581693
7 69 -0.000414378 0.0056526
7 70 3.29192e-005 0.00538355
7 71 -0.000320248 0.00583367
7 72 -0.000538026 0.00605568
7 73 -0.000142148 0.00557463
7 74 8.56747e-005 0.00558967
7 75 -0.000649249 0.00628257
7 76 -0.000440988 0.00603895
7 77 0.000136603 0.00545077
7 78 -0.000242994 0.00604588
7 79 -0.0010227 0.00663974
7 80 -9.14068e-005 0.00573274
7 81 7.68507e-005 0.00554714
7 82 -0.00102766 0.00679861
7 83 -0.00117173 0.00666684
7 84 0.000319494 0.00527744
7 85 -0.000798496 0.00625011
7 86 -0.0020777 0.00762748
7 87 -0.00096711 0.0060559
7 88 0.000115503 0.00520854
7 89 -0.00277528 0.00793248
7 90 -0.00324799 0.00758362
7 91 -0.000958941 0.00466156
7 92 -0.0018362 0.0072026
7 93 -0.00732189 0.00950108
7 94 -0.00278829 0.00464251
7 95 -0.00351409 0.00462254
7 96 -0.0074976 0.0115056
7 97 -0.00684108 0.0147599
7 98 0.0217495 0.00848237
7 99 0.0962256 -0.000195045
7 100 0.1 0
8 0 0 0
8 1 -1.98894e-005 3.06324e-006
8 2 -0.000144687 4.95134e-005
8 3 -0.000154115 7.14633e-005
8 4 -0.000195216 0.000112819
8 5 -0.00023564 0.000157512
8 6 -0.000269413 0.000210645
8 7 -0.000303691 0.00029046
8 8 -0.00031583 0.000354299
8 9 -0.000338093 0.000406542
8 10 -0.000358122 0.000482544
8 11 -0.000368477 0.000566068
8 12 -0.00036956 0.00061837
8 13 -0.000387453 0.000680733
8 14 -0.00039749 0.000770072
8 15 -0.00039562 0.000837564
8 16 -0.000399539 0.000881297
8 17 -0.00041875 0.000961515
8 18 -0.000418753 0.00104913
8 19 -0.000415762 0.00109589
8 20 -0.000429148 0.00115079
8 21 -0.000445537 0.00125117
8 22 -0.000436281 0.0013227
8 23 -0.000442422 0.00136297
8 24 -0.000463104 0.00144975
8 25 -0.000469404 0.00155833
8 26 -0.000457808 0.00160937
8 27 -0.000479849 0.00167128
8 28 -0.000497966 0.00179511
8 29 -0.000492451 0.00189134
8 30 -0.000490601 0.00193613
8 31 -0.00052655 0.00204577
8 32 -0.000530529 0.00218811
8 33 -0.000521372 0.00225818
8 34 -0.000538472 0.00232746
8 35 -0.000576671 0.00249003
8 36 -0.00056092 0.00261571
8 37 -0.000562417 0.00266719
8 38 -0.000597449 0.00279257
8 39 -0.0006217 0.00298075
8 40 -0.000590009 0.00305768
8 41 -0.000615413 0.00312432
8 42 -0.000655205 0.00331577
8 43 -0.000651066 0.00347439
8 44 -0.000616673 0.0034996
8 45 -0.000672096 0.00362978
8 46 -0.000692002 0.00385411
8 47 -0.000654422 0.00392636
8 48 -0.000639101 0.00394571
8 49 -0.00071576 0.00416952
8 50 -0.000685523 0.00434627
8 51 -0.000629771 0.00431916
8 52 -0.000655662 0.00441783
8 53 -0.000722699 0.00470246
8 54 -0.000623099 0.00473812
8 55 -0.000590009 0.00468247
8 56 -0.000660963 0.00492942
8 57 -0.000670116 0.00515723
8 58 -0.000515534 0.00501879
8 59 -0.0005593 0.00508082
8 60 -0.000641151 0.00544545
8 61 -0.000549674 0.00545879
8 62 -0.000401797 0.00524832
8 63 -0.000558755 0.00556348
8 64 -0.000574448 0.00586396
8 65 -0.000381563 0.00558628
8 66 -0.000340737 0.00554655
8 67 -0.000588657 0.0060967
8 68 -0.000440594 0.00605765
8 69 -0.000225156 0.00563626
8 70 -0.000390995 0.00602518
8 71 -0.000616288 0.00652882
8 72 -0.000242241 0.00598186
8 73 -0.000184311 0.00583255
8 74 -0.000581262 0.00667361
8 75 -0.000578359 0.00664899
8 76 -4.20666e-005 0.00580388
8 77 -0.000401129 0.00642705
8 78 -0.000872286 0.00726667
8 79 -0.000412317 0.00636444
8 80 -1.97769e-005 0.00595173
8 81 -0.00102189 0.00747741
8 82 -0.00110776 0.00741328
8 83 -0.000147585 0.0059485
8 84 -0.00055931 0.00695438
8 85 -0.00208504 0.00859544
8 86 -0.000956274 0.00687316
8 87 -0.000191531 0.00619834
8 88 -0.00237125 0.00889809
8 89 -0.00304566 0.00896622
8 90 -0.00016023 0.00617011
8 91 -0.00249197 0.00797189
8 92 -0.0053358 0.0104001
8 93 -0.00264365 0.00731823
8 94 -0.000401746 0.00591332
8 95 -0.00885867 0.00973286
8 96 -0.00748968 0.00742873
8 97 0.00144454 0.00151008
8 98 0.0247306 -0.00469394
8 99 0.0964637 -0.00100615
8 100 0.1 0
9 0 0 0
9 1 -2.62994e-005 -6.1371e-007
9 2 -0.000163877 2.29896e-006
9 3 -0.000187537 6.40854e-005
9 4 -0.000237217 0.000112726
9 5 -0.000283442 0.000172687
9 6 -0.000325979 0.000239194
9 7 -0.000364787 0.000295583
9 8 -0.000378965 0.000357068
9 9 -0.000407056 0.000443049
9 10 -0.000428765 0.000514099
9 11 -0.000437562 0.000569771
9 12 -0.000443715 0.000646547
9 13 -0.000463934 0.000733739
9 14 -0.000469633 0.000788414
9 15 -0.000468466 0.000846407
9 16 -0.00048002 0.000934716
9 17 -0.000495115 0.00100727
9 18 -0.000491188 0.00104914
9 19 -0.000494992 0.00112383
9 20 -0.0005133 0.00121597
9 21 -0.000520416 0.00126815
9 22 -0.000514725 0.00131804
9 23 -0.000530674 0.00141921
9 24 -0.000548747 0.00150168
9 25 -0.000547233 0.00154416
9 26 -0.000549192 0.00162805
9 27 -0.000575958 0.00174832
9 28 -0.000585225 0.00181114
9 29 -0.000581037 0.00187151
9 30 -0.000597463 0.00200153
9 31 -0.000626726 0.00211718
9 32 -0.000623164 0.00216743
9 33 -0.000626715 0.00227669
9 34 -0.000657488 0.00243705
9 35 -0.000677612 0.00252431
9 36 -0.000663991 0.00259001
9 37 -0.000685638 0.00276007
9 38 -0.000721498 0.00290994
9 39 -0.000721078 0.00296569
9 40 -0.000708081 0.00308268
9 41 -0.000753075 0.00329
9 42 -0.000773703 0.00338554
9 43 -0.00074858 0.00343855
9 44 -0.000755252 0.00362663
9 45 -0.000813493 0.00381418
9 46 -0.000791905 0.00383909
9 47 -0.000757888 0.00394248
9 48 -0.000800915 0.00418098
9 49 -0.000837697 0.00428198
9 50 -0.000761048 0.00427193
9 51 -0.000757855 0.00447286
9 52 -0.000827128 0.00468986
9 53 -0.000794033 0.00467113
9 54 -0.000690771 0.00471182
9 55 -0.000759537 0.00500476
9 56 -0.000800207 0.00509849
9 57 -0.000673062 0.00500361
9 58 -0.000619448 0.00518575
9 59 -0.000757321 0.00547913
9 60 -0.000685044 0.00537992
9 61 -0.000510978 0.00533691
9 62 -0.00059374 0.0056797
9 63 -0.000714989 0.00581546
9 64 -0.000476807 0.00556058
9 65 -0.000393397 0.00572602
9 66 -0.000627319 0.00611496
9 67 -0.000576454 0.00595778
9 68 -0.000239988 0.00572507
9 69 -0.000420818 0.00617449
9 70 -0.000663226 0.00637049
9 71 -0.000317594 0.00593166
9 72 -0.000127892 0.00598344
9 73 -0.000630977 0.00660083
9 74 -0.000583769 0.00635193
9 75 -3.24734e-005 0.00587195
9 76 -0.000335198 0.0064048
9 77 -0.000918767 0.00684739
9 78 -0.000309628 0.0060739
9 79 -4.10481e-006 0.00599013
9 80 -0.000951641 0.00693817
9 81 -0.00104732 0.0067381
9 82 9.14239e-006 0.00570953
9 83 -0.000643673 0.00649016
9 84 -0.00178458 0.00734886
9 85 -0.000866451 0.00614912
9 86 -0.000204699 0.00561828
9 87 -0.00215242 0.00745246
9 88 -0.00246276 0.00710275
9 89 -0.000781405 0.00511655
9 90 -0.00173206 0.00652368
9 91 -0.00458976 0.0082768
9 92 -0.00245959 0.00519547
9 93 -0.00190588 0.00480479
9 94 -0.00556384 0.00846004
9 95 -0.0054203 0.00634256
9 96 -0.00186872 6.18932e-005
9 97 0.000251583 0.00308714
9 98 0.0246776 0.00544446
9 99 0.097021 -0.00012614
9 100 0.1 0
10 0 0 0
10 1 -2.88605e-005 5.38522e-006
10 2 -0.000185698 6.60233e-005
10 3 -0.000201586 7.83443e-005
10 4 -0.0002704 0.000102299
10 5 -0.000339221 0.000169006
10 6 -0.000371454 0.00023513
10 7 -0.000411601 0.000289996
10 8 -0.000449259 0.00035925
10 9 -0.000477343 0.000441276
10 10 -0.000484179 0.000502819
10 11 -0.000509451 0.000567561
10 12 -0.000529862 0.00065208
10 13 -0.000532299 0.000726266
10 14 -0.000535986 0.000780194
10 15 -0.00056023 0.00085688
10 16 -0.00056655 0.000941919
10 17 -0.000560859 0.000999687
10 18 -0.000575605 0.00105743
10 19 -0.000597863 0.00114807
10 20 -0.000591569 0.00122242
10 21 -0.00059322 0.0012723
10 22 -0.000620359 0.00135035
10 23 -0.000631965 0.00144897
10 24 -0.000620146 0.0015091
10 25 -0.000640058 0.00157183
10 26 -0.000669394 0.00167763
10 27 -0.000665246 0.00177178
10 28 -0.000662158 0.00182783
10 29 -0.000701135 0.00192456
10 30 -0.000717528 0.00204901
10 31 -0.000704243 0.00212998
10 32 -0.000723542 0.00220397
10 33 -0.000769315 0.00234193
10 34 -0.000762978 0.00246363
10 35 -0.000757266 0.00253646
10 36 -0.000801418 0.00265105
10 37 -0.000833899 0.0028153
10 38 -0.000807217 0.00291306
10 39 -0.000826507 0.00299817
10 40 -0.000882324 0.00316162
10 41 -0.000882656 0.00331783
10 42 -0.000850459 0.00338571
10 43 -0.000903845 0.00351225
10 44 -0.00094382 0.00370606
10 45 -0.000903432 0.00381474
10 46 -0.000890676 0.00387486
10 47 -0.000969779 0.00406376
10 48 -0.000958318 0.00423782
10 49 -0.000891008 0.00428084
10 50 -0.000923836 0.00438342
10 51 -0.000993922 0.00461996
10 52 -0.000906266 0.00470853
10 53 -0.000855301 0.00471938
10 54 -0.000939052 0.00491433
10 55 -0.000944207 0.00512739
10 56 -0.000794391 0.00509371
10 57 -0.000817851 0.00516287
10 58 -0.000914094 0.00544437
10 59 -0.000806747 0.00552431
10 60 -0.000663195 0.00541641
10 61 -0.000795099 0.00564482
10 62 -0.000820901 0.00590488
10 63 -0.000606209 0.0057771
10 64 -0.00057405 0.00574822
10 65 -0.000780163 0.00615077
10 66 -0.000644085 0.00619734
10 67 -0.0004133 0.00592781
10 68 -0.000578948 0.00617064
10 69 -0.000738609 0.00658189
10 70 -0.000407865 0.00626122
10 71 -0.000332551 0.00611713
10 72 -0.00068878 0.00669492
10 73 -0.0006273 0.00677652
10 74 -0.000199543 0.00617443
10 75 -0.000470984 0.00653183
10 76 -0.000857088 0.00717896
10 77 -0.000433773 0.00662548
10 78 -0.000181079 0.00621564
10 79 -0.00090269 0.00724404
10 80 -0.000980522 0.00732906
10 81 -0.000230356 0.00626691
10 82 -0.000599422 0.00676964
10 83 -0.00162465 0.00799253
10 84 -0.000892642 0.00690708
10 85 -0.000289349 0.00624003
10 86 -0.00183301 0.00792484
10 87 -0.00234104 0.0081336
10 88 -0.000470477 0.00618938
10 89 -0.00154264 0.00716532
10 90 -0.00392889 0.00880886
10 91 -0.0021591 0.0071015
10 92 -0.000652055 0.00598175
10 93 -0.00493386 0.00825391
10 94 -0.0052446 0.00726439
10 95 0.000405154 0.00548609
10 96 -0.00302669 0.00665248
10 97 -0.000215598 0.00573806
10 98 0.029468 -0.000745416