Title= "LBM Lid Driven Flow"
VARIABLES="X","Y","U","V"
ZONE T="BOX",I=101,J=101,F=POINT
0 0 0 0
0 1 0 0
0 2 0 0
0 3 0 0
0 4 0 0
0 5 0 0
0 6 0 0
0 7 0 0
0 8 0 0
0 9 0 0
0 10 0 0
0 11 0 0
0 12 0 0
0 13 0 0
0 14 0 0
0 15 0 0
0 16 0 0
0 17 0 0
0 18 0 0
0 19 0 0
0 20 0 0
0 21 0 0
0 22 0 0
0 23 0 0
0 24 0 0
0 25 0 0
0 26 0 0
0 27 0 0
0 28 0 0
0 29 0 0
0 30 0 0
0 31 0 0
0 32 0 0
0 33 0 0
0 34 0 0
0 35 0 0
0 36 0 0
0 37 0 0
0 38 0 0
0 39 0 0
0 40 0 0
0 41 0 0
0 42 0 0
0 43 0 0
0 44 0 0
0 45 0 0
0 46 0 0
0 47 0 0
0 48 0 0
0 49 0 0
0 50 0 0
0 51 0 0
0 52 0 0
0 53 0 0
0 54 0 0
0 55 0 0
0 56 0 0
0 57 0 0
0 58 0 0
0 59 0 0
0 60 0 0
0 61 0 0
0 62 0 0
0 63 0 0
0 64 0 0
0 65 0 0
0 66 0 0
0 67 0 0
0 68 0 0
0 69 0 0
0 70 0 0
0 71 0 0
0 72 0 0
0 73 0 0
0 74 0 0
0 75 0 0
0 76 0 0
0 77 0 0
0 78 0 0
0 79 0 0
0 80 0 0
0 81 0 0
0 82 0 0
0 83 0 0
0 84 0 0
0 85 0 0
0 86 0 0
0 87 0 0
0 88 0 0
0 89 0 0
0 90 0 0
0 91 0 0
0 92 0 0
0 93 0 0
0 94 0 0
0 95 0 0
0 96 0 0
0 97 0 0
0 98 0 0
0 99 0 0
0 100 0.1 0
1 0 0 0
1 1 -6.50685e-006 6.83781e-006
1 2 3.22542e-006 4.92038e-005
1 3 -3.66942e-006 2.1148e-005
1 4 4.4235e-007 1.09709e-005
1 5 -5.38906e-006 1.06639e-005
1 6 -9.59366e-008 4.97873e-006
1 7 -6.23633e-006 2.99169e-006
1 8 -7.09036e-007 8.63528e-006
1 9 -5.40696e-006 -6.12606e-006
1 10 -1.60363e-006 -1.10299e-005
1 11 -5.78263e-006 -4.92829e-006
1 12 -8.06614e-008 -1.14451e-005
1 13 -4.56991e-006 -3.20287e-005
1 14 -5.25744e-007 -2.70496e-005
1 15 -2.41204e-006 -2.62793e-005
1 16 3.21494e-006 -4.99877e-005
1 17 -9.01811e-007 -6.28801e-005
1 18 5.40714e-006 -5.05594e-005
1 19 5.18848e-006 -6.67975e-005
1 20 1.07113e-005 -9.45359e-005
1 21 8.00144e-006 -8.49512e-005
1 22 1.77117e-005 -7.59336e-005
1 23 1.71564e-005 -0.00010614
1 24 2.30243e-005 -0.000109457
1 25 2.25541e-005 -7.44229e-005
1 26 3.44019e-005 -8.0813e-005
1 27 3.06104e-005 -9.98054e-005
1 28 3.80607e-005 -5.51682e-005
1 29 3.88023e-005 -1.60248e-005
1 30 4.90502e-005 -3.88913e-005
1 31 4.03223e-005 -1.11606e-005
1 32 5.11324e-005 6.88429e-005
1 33 4.91827e-005 7.34796e-005
1 34 5.44346e-005 5.657e-005
1 35 4.24882e-005 0.000146384
1 36 5.73945e-005 0.000204579
1 37 4.72346e-005 0.000156165
1 38 4.85353e-005 0.00018793
1 39 3.76505e-005 0.000307083
1 40 5.43925e-005 0.000277305
1 41 3.22181e-005 0.000215988
1 42 3.66128e-005 0.000327771
1 43 2.92665e-005 0.000392064
1 44 4.21855e-005 0.000261446
1 45 9.96359e-006 0.000280912
1 46 2.75844e-005 0.000435274
1 47 1.87861e-005 0.000351768
1 48 2.29659e-005 0.000212916
1 49 -8.99641e-006 0.000381692
1 50 2.67735e-005 0.000442842
1 51 3.15468e-006 0.000210751
1 52 3.57445e-006 0.000233505
1 53 -1.45414e-005 0.000476871
1 54 2.99814e-005 0.000296135
1 55 -1.97178e-005 9.01238e-005
1 56 -3.22374e-006 0.00036632
1 57 -5.7295e-006 0.000444525
1 58 2.65795e-005 4.81566e-005
1 59 -4.17889e-005 0.000136942
1 60 1.36421e-005 0.000505066
1 61 4.53836e-006 0.000201865
1 62 1.32679e-005 -0.000114246
1 63 -4.56061e-005 0.00037043
1 64 5.07584e-005 0.000451253
1 65 -3.09273e-007 -0.000154165
1 66 4.24049e-006 -6.17822e-006
1 67 -1.93193e-005 0.000607566
1 68 8.8923e-005 0.000107498
1 69 -2.20032e-005 -0.000369218
1 70 2.29163e-005 0.00037039
1 71 3.02543e-005 0.000585525
1 72 0.000109461 -0.000399518
1 73 -4.23322e-005 -0.000210786
1 74 8.50741e-005 0.000788551
1 75 8.15178e-005 0.000151296
1 76 0.000110673 -0.000775564
1 77 -3.40818e-005 0.00037833
1 78 0.000192224 0.000900745
1 79 0.000112368 -0.000656978
1 80 0.000109629 -0.000673478
1 81 3.23763e-005 0.00122069
1 82 0.000334823 0.000321903
1 83 0.000110832 -0.00159574
1 84 0.000140376 0.000241773
1 85 0.00019897 0.00179164
1 86 0.000492664 -0.0013683
1 87 7.96293e-005 -0.00206063
1 88 0.00027982 0.00215929
1 89 0.000543319 0.000734346
1 90 0.000610968 -0.00446294
1 91 4.30581e-005 -0.000233101
1 92 0.000739044 0.00469849
1 93 0.00123799 -0.00575182
1 94 0.000757794 -0.0110578
1 95 7.30022e-005 0.00674254
1 96 0.00249478 0.00298132
1 97 0.0022754 -0.0232185
1 98 -0.00299967 0.03416
1 99 0.00730883 0.0123734
1 100 0.1 0
2 0 0 0
2 1 -5.6846e-005 -2.88043e-006
2 2 3.21545e-005 -2.57454e-005
2 3 -1.15318e-005 -1.59437e-005
2 4 4.74879e-005 -4.50203e-005
2 5 -1.64028e-005 -9.43774e-005
2 6 5.32551e-005 -0.000134878
2 7 -6.60957e-006 -0.000195282
2 8 5.05213e-005 -0.000267985
2 9 3.06161e-006 -0.000331235
2 10 5.47343e-005 -0.00039642
2 11 4.12233e-006 -0.000488654
2 12 5.71534e-005 -0.000573095
2 13 1.23138e-005 -0.000644118
2 14 5.41925e-005 -0.000731688
2 15 1.07125e-005 -0.00083136
2 16 5.62098e-005 -0.000897707
2 17 5.19061e-006 -0.000957441
2 18 4.38359e-005 -0.00103246
2 19 -3.6797e-006 -0.00107937
2 20 3.16785e-005 -0.00107529
2 21 -2.89984e-005 -0.00107586
2 22 1.08191e-005 -0.00106132
2 23 -5.28584e-005 -0.000973582
2 24 -2.13565e-005 -0.000845531
2 25 -8.93527e-005 -0.000726005
2 26 -4.50974e-005 -0.000540853
2 27 -0.000129684 -0.00027312
2 28 -8.32595e-005 -7.93412e-006
2 29 -0.000155189 0.00026603
2 30 -0.000104003 0.000641876
2 31 -0.000202028 0.00104722
2 32 -0.000116196 0.0014043
2 33 -0.000199652 0.00181024
2 34 -0.000138074 0.00230169
2 35 -0.000231384 0.00272658
2 36 -9.5709e-005 0.00310062
2 37 -0.000215015 0.00356453
2 38 -0.000126514 0.00402847
2 39 -0.000200945 0.00434886
2 40 -3.64515e-005 0.00468619
2 41 -0.000214082 0.00510854
2 42 -6.06635e-005 0.00539933
2 43 -0.000130876 0.0055658
2 44 2.00505e-005 0.00585377
2 45 -0.000203168 0.00612317
2 46 5.65868e-005 0.00616642
2 47 -7.39975e-005 0.00623676
2 48 4.60597e-005 0.00645921
2 49 -0.000161977 0.00647137
2 50 0.000195806 0.00632297
2 51 -8.88202e-005 0.006403
2 52 7.0128e-005 0.00647465
2 53 -7.23152e-005 0.00619983
2 54 0.000286908 0.00604192
2 55 -0.000181292 0.00615344
2 56 0.000165704 0.00593717
2 57 1.89053e-005 0.00551159
2 58 0.000266358 0.00553034
2 59 -0.000266207 0.00551969
2 60 0.000359802 0.00497618
2 61 -1.4791e-006 0.00469207
2 62 0.000172616 0.00488145
2 63 -0.000238757 0.00451088
2 64 0.000559678 0.00385787
2 65 -0.0001989 0.0039656
2 66 0.000150798 0.00404345
2 67 -0.000108491 0.00325224
2 68 0.000625368 0.00291786
2 69 -0.000495121 0.00336629
2 70 0.000314583 0.0029555
2 71 -8.38846e-006 0.00204874
2 72 0.000509397 0.00238514
2 73 -0.00074011 0.00275667
2 74 0.00065976 0.00171841
2 75 -7.63104e-005 0.001271
2 76 0.000265216 0.00225988
2 77 -0.000818522 0.00198325
2 78 0.0011322 0.000622074
2 79 -0.000429119 0.0011959
2 80 -1.73627e-005 0.00234223
2 81 -0.0006017 0.0010044
2 82 0.00162868 8.50795e-005
2 83 -0.00125475 0.00197957
2 84 -0.000113123 0.00232485
2 85 0.000143864 -3.54241e-005
2 86 0.00170273 0.000769807
2 87 -0.00277658 0.00377889
2 88 0.000702695 0.0019505
2 89 0.00162889 -0.00043979
2 90 -0.000308737 0.00418846
2 91 -0.00490214 0.00716464
2 92 0.00463717 0.00167686
2 93 0.0047483 0.00149016
2 94 -0.00832578 0.0137325
2 95 -0.00911658 0.0169844
2 96 0.015489 0.0127071
2 97 -0.0181427 0.040078
2 98 -0.0252711 0.0350174
2 99 0.090809 0.000704902
2 100 0.1 0
3 0 0 0
3 1 -2.42853e-005 3.0278e-006
3 2 2.08333e-005 1.06548e-005
3 3 3.61736e-005 -3.21799e-005
3 4 8.60589e-005 -8.92028e-005
3 5 7.1846e-005 -0.000165131
3 6 0.00011353 -0.000250009
3 7 0.000110257 -0.000357611
3 8 0.000136163 -0.000473788
3 9 0.000123561 -0.000596782
3 10 0.000158684 -0.000727053
3 11 0.000148334 -0.000871174
3 12 0.000162406 -0.00100795
3 13 0.000153189 -0.00114874
3 14 0.000175908 -0.00129423
3 15 0.000145279 -0.00142981
3 16 0.000143946 -0.00154116
3 17 0.000121397 -0.00164756
3 18 0.000109808 -0.00172997
3 19 4.42125e-005 -0.00176566
3 20 2.30664e-005 -0.00176249
3 21 -3.24358e-005 -0.00172984
3 22 -8.92701e-005 -0.00162893
3 23 -0.000182991 -0.00145798
3 24 -0.000215803 -0.00124379
3 25 -0.000307956 -0.000968682
3 26 -0.000388777 -0.000599051
3 27 -0.000476396 -0.000174405
3 28 -0.00050026 0.00028556
3 29 -0.000610323 0.0008272
3 30 -0.000665844 0.00144254
3 31 -0.000707656 0.00206094
3 32 -0.000705708 0.00270697
3 33 -0.000804727 0.00343027
3 34 -0.000787654 0.0041559
3 35 -0.000771674 0.00483148
3 36 -0.000744866 0.00554237
3 37 -0.000809463 0.00628759
3 38 -0.000700279 0.0069437
3 39 -0.000657108 0.00754358
3 40 -0.000622446 0.00819226
3 41 -0.000635741 0.00878963
3 42 -0.000450085 0.00924308
3 43 -0.000442449 0.00969827
3 44 -0.00040283 0.0101797
3 45 -0.000349509 0.0105073
3 46 -0.00014479 0.0107298
3 47 -0.000229333 0.0110304
3 48 -0.000138916 0.0112577
3 49 -3.0413e-005 0.0112857
3 50 0.000101363 0.0113476
3 51 -6.33135e-005 0.0114806
3 52 0.000155903 0.0113939
3 53 0.000229471 0.0112109
3 54 0.00022457 0.0112015
3 55 9.74686e-005 0.011098
3 56 0.000457101 0.010723
3 57 0.000332438 0.010503
3 58 0.000267852 0.0104157
3 59 0.000319029 0.00999415
3 60 0.000664476 0.00950334
3 61 0.000251098 0.00937988
3 62 0.000368447 0.00907097
3 63 0.000562464 0.00837674
3 64 0.000650554 0.00804282
3 65 0.000111043 0.00795609
3 66 0.000614964 0.00726927
3 67 0.000647626 0.00658001
3 68 0.000425562 0.00657933
3 69 0.000114169 0.00625427
3 70 0.000903032 0.00525327
3 71 0.000422675 0.00498923
3 72 0.000196388 0.00518229
3 73 0.000326583 0.00432769
3 74 0.00101197 0.00343036
3 75 -5.00105e-005 0.0038683
3 76 0.0001877 0.00375906
3 77 0.00061417 0.00237499
3 78 0.00081666 0.00225312
3 79 -0.00054991 0.00320696
3 80 0.000478755 0.0021477
3 81 0.000786036 0.000773607
3 82 0.00030559 0.00206723
3 83 -0.000861102 0.00265185
3 84 0.00108746 0.000230657
3 85 0.000594914 0.000167751
3 86 -0.00063102 0.00300762
3 87 -0.000773976 0.00144542
3 88 0.00214472 -0.00182207
3 89 -0.000728367 0.00187113
3 90 -0.00263475 0.00478721
3 91 -0.0001275 -0.00174124
3 92 0.00455461 -0.00280336
3 93 -0.00350017 0.00916947
3 94 -0.0101518 0.00724809
3 95 -0.00406121 -0.00624959
3 96 -0.00672361 0.0139387
3 97 -0.0352219 0.0263819
3 98 0.00971602 0.0119019
3 99 0.10154 -0.000107563
3 100 0.1 0
4 0 0 0
4 1 -4.86942e-006 2.69651e-007
4 2 4.2319e-005 -5.09234e-005
4 3 8.83726e-005 -9.12822e-005
4 4 0.000142308 -0.000141444
4 5 0.000188099 -0.000246155
4 6 0.000207208 -0.000380571
4 7 0.000240646 -0.0005149
4 8 0.000255816 -0.000646683
4 9 0.000277251 -0.000814169
4 10 0.000284668 -0.000980107
4 11 0.000303719 -0.00113088
4 12 0.000299489 -0.0012903
4 13 0.000303726 -0.00146471
4 14 0.000287847 -0.001599
4 15 0.000271485 -0.00171085
4 16 0.000228981 -0.00182588
4 17 0.000188378 -0.00190319
4 18 0.000116989 -0.00190446
4 19 4.2337e-005 -0.00188209
4 20 -5.75119e-005 -0.00182758
4 21 -0.000160191 -0.00167301
4 22 -0.000292372 -0.00143866
4 23 -0.000414895 -0.00118347
4 24 -0.000558337 -0.000844458
4 25 -0.000698414 -0.000380365
4 26 -0.000849981 0.000119577
4 27 -0.000970952 0.000643878
4 28 -0.00111097 0.00129107
4 29 -0.00123055 0.00202005
4 30 -0.00133608 0.00271664
4 31 -0.00139797 0.00346028
4 32 -0.00148786 0.00432312
4 33 -0.0015326 0.00516659
4 34 -0.00154578 0.00593383
4 35 -0.00152566 0.0067866
4 36 -0.00154683 0.00769293
4 37 -0.00149109 0.00846802
4 38 -0.00141609 0.00919049
4 39 -0.00133802 0.0100245
4 40 -0.00129659 0.0107842
4 41 -0.00115043 0.011359
4 42 -0.00103786 0.011978
4 43 -0.000941869 0.0126667
4 44 -0.000847947 0.0131307
4 45 -0.000652486 0.0134828
4 46 -0.000568964 0.0139825
4 47 -0.000467794 0.0143949
4 48 -0.00032908 0.0145134
4 49 -0.000150957 0.014726
4 50 -0.000133961 0.0150606
4 51 4.53851e-006 0.0150836
4 52 0.000154851 0.0149538
4 53 0.000245108 0.0151233
4 54 0.000229093 0.015158
4 55 0.000441923 0.0147895
4 56 0.0005171 0.0146282
4 57 0.000505044 0.0147161
4 58 0.000551936 0.0142918
4 59 0.000798317 0.0137428
4 60 0.000697542 0.0137181
4 61 0.000686434 0.0134872
4 62 0.000854363 0.0126307
4 63 0.000981902 0.01227
4 64 0.000711814 0.0122716
4 65 0.000881447 0.0114699
4 66 0.0010603 0.01056
4 67 0.000918595 0.0106156
4 68 0.000676205 0.0102284
4 69 0.00110072 0.00895426
4 70 0.00102224 0.00856627
4 71 0.000665562 0.00880211
4 72 0.000719826 0.0076598
4 73 0.00121804 0.00653509
4 74 0.00066791 0.00696273
4 75 0.000414462 0.00672135
4 76 0.000863452 0.00499198
4 77 0.00105948 0.00485552
4 78 8.9981e-005 0.0057158
4 79 0.00037818 0.00440884
4 80 0.00101377 0.00294044
4 81 0.000468323 0.00426601
4 82 -0.000502669 0.00455674
4 83 0.000751432 0.00222212
4 84 0.000928727 0.00228731
4 85 -0.000773282 0.00471135
4 86 -0.000759715 0.00322102
4 87 0.00162513 0.000908727
4 88 -7.64434e-005 0.00390438
4 89 -0.00293408 0.00576827
4 90 -1.88945e-005 0.00154939
4 91 0.00210403 0.00180341
4 92 -0.0034222 0.00916046
4 93 -0.00508203 0.0075774
4 94 -0.000882184 0.00184783
4 95 -0.0103147 0.0119238
4 96 -0.0163262 0.0114642
4 97 -0.00956308 -0.0101485
4 98 0.0101757 -0.0179686
4 99 0.0930333 -0.00112534
4 100 0.1 0
5 0 0 0
5 1 -7.39201e-006 5.68529e-006
5 2 9.53213e-005 1.02772e-005
5 3 0.000165782 -7.94947e-005
5 4 0.000242903 -0.000190451
5 5 0.00031507 -0.000312192
5 6 0.000357248 -0.000443422
5 7 0.000394935 -0.000603316
5 8 0.000425244 -0.000772039
5 9 0.000458369 -0.00094919
5 10 0.000460966 -0.00111943
5 11 0.000475476 -0.00129515
5 12 0.000476515 -0.00146132
5 13 0.000462933 -0.00161109
5 14 0.000418037 -0.00173435
5 15 0.000383578 -0.00183898
5 16 0.000311933 -0.00189995
5 17 0.000211824 -0.00190893
5 18 9.00411e-005 -0.00186844
5 19 -2.98892e-005 -0.00177423
5 20 -0.000204952 -0.00159758
5 21 -0.000394176 -0.00134669
5 22 -0.000583815 -0.00103278
5 23 -0.000779764 -0.00063545
5 24 -0.00102391 -0.000141524
5 25 -0.00123942 0.00041705
5 26 -0.00143649 0.0010354
5 27 -0.00164591 0.00174474
5 28 -0.00186953 0.00252564
5 29 -0.00201543 0.00333249
5 30 -0.00214713 0.00418306
5 31 -0.00229272 0.005106
5 32 -0.00240375 0.00604156
5 33 -0.00241518 0.0069557
5 34 -0.00244574 0.00789734
5 35 -0.00247706 0.00886852
5 36 -0.00243359 0.00978074
5 37 -0.00231607 0.0106486
5 38 -0.00226282 0.0115338
5 39 -0.00217322 0.0123858
5 40 -0.00199819 0.0131294
5 41 -0.00181764 0.013849
5 42 -0.00172269 0.0145665
5 43 -0.00152972 0.0151824
5 44 -0.0012945 0.0156957
5 45 -0.00113257 0.0162297
5 46 -0.00101347 0.0167065
5 47 -0.000744631 0.0170404
5 48 -0.000545413 0.0173425
5 49 -0.000441054 0.0176782
5 50 -0.00027294 0.0178649
5 51 1.49249e-005 0.0179464
5 52 9.44447e-005 0.0180898
5 53 0.00018493 0.018188
5 54 0.00042399 0.0180729
5 55 0.000627613 0.0179946
5 56 0.000578586 0.0179914
5 57 0.000759565 0.0177838
5 58 0.00100762 0.0174367
5 59 0.00102589 0.0172969
5 60 0.000960095 0.0170649
5 61 0.00129075 0.0165312
5 62 0.001378 0.0161162
5 63 0.00122536 0.0159145
5 64 0.0013232 0.015319
5 65 0.00169135 0.0145975
5 66 0.00145192 0.0142811
5 67 0.00133444 0.0138537
5 68 0.00166971 0.0128741
5 69 0.0017876 0.0122757
5 70 0.00126529 0.0120504
5 71 0.00148657 0.0111752
5 72 0.00184193 0.0100773
5 73 0.00146278 0.00990364
5 74 0.00102375 0.00949548
5 75 0.00169733 0.00815279
5 76 0.00159687 0.00747083
5 77 0.0008366 0.00772238
5 78 0.000982259 0.0067222
5 79 0.0017769 0.00531474
5 80 0.000820134 0.00559444
5 81 0.000244423 0.00576937
5 82 0.00123114 0.00392743
5 83 0.0013949 0.00333465
5 84 -0.000381405 0.00475071
5 85 -8.67233e-006 0.00385793
5 86 0.00157427 0.00145249
5 87 7.06257e-005 0.00297079
5 88 -0.00190988 0.00485314
5 89 0.000163077 0.00177962
5 90 0.00122525 0.000389321
5 91 -0.00298218 0.00521624
5 92 -0.00471973 0.00510793
5 93 -0.00027573 0.0012757
5 94 -0.00491544 0.00673274
5 95 -0.015176 0.0061141
5 96 -0.000636054 -0.0033298
5 97 -0.00944236 0.000848127
5 98 0.00317454 0.00793867
5 99 0.0872095 0.00126917
5 100 0.1 0
6 0 0 0
6 1 -7.11836e-006 2.23174e-007
6 2 0.000143294 -4.44316e-005
6 3 0.000257535 -0.000107108
6 4 0.000364634 -0.000211451
6 5 0.000438318 -0.000351356
6 6 0.000512305 -0.000493869
6 7 0.000558432 -0.000666033
6 8 0.000592818 -0.000840772
6 9 0.000616353 -0.00100276
6 10 0.000632432 -0.00116083
6 11 0.000627767 -0.00133191
6 12 0.000607311 -0.0014642
6 13 0.00056938 -0.00156011
6 14 0.00050858 -0.00164323
6 15 0.000415275 -0.00169128
6 16 0.000294688 -0.00165515
6 17 0.000148107 -0.00157258
6 18 -3.05462e-005 -0.0014509
6 19 -0.000246134 -0.00123438
6 20 -0.000481866 -0.000917192
6 21 -0.000735966 -0.000559899
6 22 -0.0010137 -0.000127293
6 23 -0.00131177 0.00043255
6 24 -0.00160001 0.00105978
6 25 -0.00188685 0.00171303
6 26 -0.00217472 0.00247232
6 27 -0.00245249 0.00333528
6 28 -0.00268367 0.00419479
6 29 -0.00289538 0.00507733
6 30 -0.0030856 0.00607073
6 31 -0.00324033 0.00708558
6 32 -0.00332207 0.00802904
6 33 -0.00338403 0.00901312
6 34 -0.00341621 0.0100682
6 35 -0.00339938 0.0110358
6 36 -0.00330842 0.0119151
6 37 -0.00322511 0.0128647
6 38 -0.00310729 0.0137957
6 39 -0.00293946 0.0145596
6 40 -0.00272952 0.015295
6 41 -0.00256159 0.016105
6 42 -0.00233891 0.0167731
6 43 -0.00208747 0.0172849
6 44 -0.0018458 0.017874
6 45 -0.0016494 0.0184614
6 46 -0.00136672 0.0188075
6 47 -0.00111481 0.0191294
6 48 -0.000905254 0.0195823
6 49 -0.000692824 0.0198661
6 50 -0.0003943 0.0199335
6 51 -0.000215993 0.0201726
6 52 -3.78734e-005 0.0204302
6 53 0.000203616 0.0203639
6 54 0.00045182 0.0202962
6 55 0.000529267 0.0204887
6 56 0.000737915 0.0204141
6 57 0.000983717 0.0200684
6 58 0.0011054 0.020029
6 59 0.00114045 0.0200445
6 60 0.00143321 0.0195392
6 61 0.00157885 0.0191376
6 62 0.00156028 0.0191465
6 63 0.00167428 0.0187302
6 64 0.0019969 0.017913
6 65 0.00191151 0.0177074
6 66 0.00186801 0.0175164
6 67 0.00213098 0.0165269
6 68 0.00229339 0.0157918
6 69 0.0019568 0.0157967
6 70 0.00209158 0.0149978
6 71 0.00239547 0.0137069
6 72 0.00218573 0.0134955
6 73 0.00178809 0.013298
6 74 0.00224012 0.011737
6 75 0.00227908 0.0108808
6 76 0.00166331 0.0112131
6 77 0.00156057 0.01018
6 78 0.00224245 0.00840385
6 79 0.00162957 0.00872739
6 80 0.000905111 0.00889183
6 81 0.00144723 0.00681651
6 82 0.00193278 0.00605454
6 83 0.000375413 0.00754377
6 84 0.000256364 0.0064073
6 85 0.00150744 0.00411986
6 86 0.000849009 0.00566273
6 87 -0.00153198 0.00707332
6 88 0.000181358 0.00394937
6 89 0.00111695 0.00349097
6 90 -0.00243187 0.00776095
6 91 -0.00379519 0.00715775
6 92 0.000208565 0.00325624
6 93 -0.00473424 0.00731601
6 94 -0.00969371 0.0108886
6 95 -0.00573525 0.00662487
6 96 -0.000310185 0.00933026
6 97 -0.0151577 0.0127922
6 98 0.0102637 0.00211746
6 99 0.0938201 -0.000499995
6 100 0.1 0
7 0 0 0
7 1 7.8529e-006 5.06064e-006
7 2 0.000196572 -1.89131e-006
7 3 0.00035931 -0.00010307
7 4 0.000498276 -0.000218766
7 5 0.000588626 -0.000359718
7 6 0.000673122 -0.000510543
7 7 0.000731795 -0.000671717
7 8 0.000767315 -0.000827259
7 9 0.000780566 -0.000992162
7 10 0.000790884 -0.00113914
7 11 0.000768282 -0.00126053
7 12 0.000715538 -0.00135357
7 13 0.000644034 -0.00142522
7 14 0.000546214 -0.00143928
7 15 0.000393883 -0.00139484
7 16 0.000211276 -0.0013001
7 17 4.34076e-006 -0.00114339
7 18 -0.000249304 -0.000891018
7 19 -0.00055294 -0.000564664
7 20 -0.000863259 -0.000173018
7 21 -0.00119683 0.000314335
7 22 -0.00156953 0.000906011
7 23 -0.00195256 0.00155884
7 24 -0.00230442 0.00228089
7 25 -0.00267223 0.00310624
7 26 -0.00304347 0.00400379
7 27 -0.0033674 0.0049279
7 28 -0.00363186 0.0059097
7 29 -0.0039082 0.00696554
7 30 -0.00413556 0.00802944
7 31 -0.00427296 0.0090771
7 32 -0.00435767 0.010157
7 33 -0.00445283 0.0112526
7 34 -0.00445079 0.0122858
7 35 -0.00436646 0.013278
7 36 -0.00426843 0.0142758
7 37 -0.0041728 0.0152221
7 38 -0.00395599 0.0160656
7 39 -0.00371902 0.0168806
7 40 -0.00350668 0.0176731
7 41 -0.0032698 0.0183597
7 42 -0.0029251 0.0189576
7 43 -0.00265165 0.0195603
7 44 -0.00239305 0.0200955
7 45 -0.00207399 0.020506
7 46 -0.00171155 0.0208925
7 47 -0.00148824 0.0212925
7 48 -0.00119938 0.0215623
7 49 -0.000856559 0.0217505
7 50 -0.000570894 0.0219901
7 51 -0.000404637 0.0221846
7 52 -6.61405e-005 0.022209
7 53 0.000222272 0.0222659
7 54 0.000393669 0.0223846
7 55 0.000571502 0.022339
7 56 0.000946508 0.0221798
7 57 0.00109133 0.022183
7 58 0.00120489 0.0221218
7 59 0.00146682 0.0218123
7 60 0.0017824 0.0215785
7 61 0.00174848 0.0215186
7 62 0.00193751 0.0211533
7 63 0.0022545 0.0206453
7 64 0.00236786 0.0204367
7 65 0.00224458 0.0201643
7 66 0.00261796 0.0194226
7 67 0.00280337 0.0189015
7 68 0.00265078 0.0186857
7 69 0.00264366 0.0179779
7 70 0.00313938 0.0169968
7 71 0.00292397 0.0166623
7 72 0.00266294 0.0162003
7 73 0.00295392 0.014986
7 74 0.00325068 0.0141462
7 75 0.00251541 0.0140053
7 76 0.0025529 0.0129826
7 77 0.00304245 0.0115668
7 78 0.00268471 0.0112959
7 79 0.00174319 0.0110442
7 80 0.0024938 0.00936949
7 81 0.00259165 0.00842547
7 82 0.00140624 0.00886641
7 83 0.00102286 0.007992
7 84 0.00241423 0.00603692
7 85 0.00117648 0.00637414
7 86 -0.000320516 0.0070761
7 87 0.000583769 0.00511443
7 88 0.00160715 0.00396616
7 89 -0.00168286 0.00616655
7 90 -0.00252862 0.00564922
7 91 -0.000709332 0.00284322
7 92 -0.00218883 0.00525269
7 93 -0.00837302 0.0074855
7 94 -0.00475064 0.00311655
7 95 -0.00795633 0.00325596
7 96 -0.0125685 0.00976075
7 97 -0.0103382 0.0135254
7 98 0.0203313 0.00847445
7 99 0.0964415 -0.000161352
7 100 0.1 0
8 0 0 0
8 1 7.29715e-006 1.49386e-006
8 2 0.000255405 -4.55594e-005
8 3 0.000454156 -0.00011928
8 4 0.000612088 -0.000207457
8 5 0.000737609 -0.000344491
8 6 0.000820087 -0.000495457
8 7 0.00087633 -0.000640983
8 8 0.000912476 -0.00077127
8 9 0.000920555 -0.0009113
8 10 0.000893492 -0.00101985
8 11 0.000846135 -0.00108868
8 12 0.000767189 -0.001129
8 13 0.00064454 -0.00113742
8 14 0.00047649 -0.00106517
8 15 0.000278767 -0.000931194
8 16 3.21581e-005 -0.00074813
8 17 -0.000268018 -0.000481349
8 18 -0.000605921 -0.00010621
8 19 -0.000967743 0.000330854
8 20 -0.00137437 0.000840765
8 21 -0.00181439 0.00146966
8 22 -0.00225558 0.00219215
8 23 -0.00269726 0.00295827
8 24 -0.00315527 0.0038155
8 25 -0.00360069 0.00478483
8 26 -0.00399824 0.00578734
8 27 -0.00436817 0.00680749
8 28 -0.00471332 0.00791675
8 29 -0.00499936 0.00907373
8 30 -0.00520304 0.0101797
8 31 -0.00536261 0.0112866
8 32 -0.00547081 0.0124492
8 33 -0.0055006 0.0135584
8 34 -0.00544529 0.014561
8 35 -0.0053608 0.0155745
8 36 -0.00522332 0.016583
8 37 -0.00501575 0.0174506
8 38 -0.00475697 0.0182293
8 39 -0.00450435 0.019044
8 40 -0.00419974 0.0197703
8 41 -0.00385478 0.0203315
8 42 -0.00351155 0.0208907
8 43 -0.0031923 0.0214739
8 44 -0.00281125 0.0218819
8 45 -0.00244278 0.022198
8 46 -0.00211427 0.0226008
8 47 -0.00178384 0.0229356
8 48 -0.00139361 0.0230682
8 49 -0.00108896 0.023264
8 50 -0.000804315 0.0235352
8 51 -0.000467978 0.0236026
8 52 -0.000127428 0.023575
8 53 7.77454e-005 0.0237451
8 54 0.000361595 0.0238228
8 55 0.000694605 0.0236502
8 56 0.000926478 0.0236124
8 57 0.00107317 0.0237279
8 58 0.00141571 0.023514
8 59 0.00167825 0.0232295
8 60 0.00178398 0.0232594
8 61 0.00197711 0.0231474
8 62 0.00236117 0.0226372
8 63 0.00244704 0.0224291
8 64 0.00250642 0.0224097
8 65 0.00282416 0.0218732
8 66 0.00310721 0.0212534
8 67 0.00297128 0.021204
8 68 0.00314163 0.0208163
8 69 0.00351358 0.0198599
8 70 0.00349817 0.0194414
8 71 0.0032496 0.0193408
8 72 0.00364147 0.0182844
8 73 0.00381068 0.0172823
8 74 0.00341091 0.0172308
8 75 0.00329841 0.0165826
8 76 0.00383132 0.0149727
8 77 0.00346409 0.0145606
8 78 0.00285865 0.0145624
8 79 0.00313455 0.0129653
8 80 0.0034763 0.0116176
8 81 0.00235754 0.0121659
8 82 0.00203984 0.0113919
8 83 0.00275736 0.00919849
8 84 0.00230082 0.00933582
8 85 0.000536444 0.0102651
8 86 0.00129952 0.00801515
8 87 0.00185954 0.00670694
8 88 -0.000383926 0.00887017
8 89 -0.00178153 0.00865109
8 90 0.000686633 0.00561402
8 91 -0.00194311 0.00711002
8 92 -0.00573072 0.00937957
8 93 -0.00420672 0.0065284
8 94 -0.00262966 0.00568514
8 95 -0.0123862 0.00893596
8 96 -0.0118559 0.00570857
8 97 -0.00327065 4.81848e-005
8 98 0.0224468 -0.00530809
8 99 0.0966792 -0.00102538
8 100 0.1 0
9 0 0 0
9 1 1.27954e-005 4.15568e-006
9 2 0.00031184 -1.10236e-007
9 3 0.000554661 -8.75086e-005
9 4 0.000729979 -0.000200915
9 5 0.000876111 -0.000324333
9 6 0.00096212 -0.000437349
9 7 0.0010163 -0.000569721
9 8 0.00103671 -0.00068983
9 9 0.00103049 -0.000782
9 10 0.000971367 -0.000841553
9 11 0.000887285 -0.000884576
9 12 0.000760685 -0.000867113
9 13 0.000585105 -0.000784364
9 14 0.000350362 -0.000650413
9 15 8.44117e-005 -0.000457715
9 16 -0.000242858 -0.000159936
9 17 -0.00062555 0.0002198
9 18 -0.00105067 0.000664128
9 19 -0.00150105 0.00120874
9 20 -0.00200519 0.00187495
9 21 -0.00253273 0.00261028
9 22 -0.00305912 0.00341795
9 23 -0.00358721 0.00434444
9 24 -0.00412993 0.00536119
9 25 -0.00463486 0.00640762
9 26 -0.00508411 0.0075172
9 27 -0.00550788 0.00871383
9 28 -0.00589135 0.00992125
9 29 -0.00617332 0.0111038
9 30 -0.00637353 0.0123158
9 31 -0.00653974 0.0135392
9 32 -0.0066182 0.0146834
9 33 -0.00657782 0.0157679
9 34 -0.00648448 0.0168462
9 35 -0.00636465 0.0178558
9 36 -0.00613901 0.0187394
9 37 -0.0058402 0.0195777
9 38 -0.00554516 0.0203823
9 39 -0.00522363 0.0210641
9 40 -0.00480951 0.0216421
9 41 -0.00440545 0.0222188
9 42 -0.00403542 0.022724
9 43 -0.00361727 0.0230961
9 44 -0.00315592 0.0234412
9 45 -0.0027791 0.023805
9 46 -0.00240268 0.0240431
9 47 -0.00196519 0.024199
9 48 -0.00156776 0.0244121
9 49 -0.00126488 0.0245966
9 50 -0.000884364 0.0246213
9 51 -0.000491099 0.0246777
9 52 -0.00020908 0.0248125
9 53 6.17611e-005 0.0248122
9 54 0.000452038 0.0247012
9 55 0.000738311 0.0247499
9 56 0.000935542 0.0247748
9 57 0.00124807 0.0245803
9 58 0.001602 0.0244394
9 59 0.001752 0.0244894
9 60 0.001966 0.0243031
9 61 0.00233585 0.0239637
9 62 0.00255909 0.0238837
9 63 0.00262695 0.0238144
9 64 0.00295643 0.0233323
9 65 0.00328124 0.0229833
9 66 0.00330791 0.0229385
9 67 0.00342926 0.0225326
9 68 0.00386065 0.0218091
9 69 0.00394852 0.0215934
9 70 0.00383319 0.0213576
9 71 0.00413962 0.0204659
9 72 0.00447052 0.0197455
9 73 0.00416578 0.0196382
9 74 0.00412273 0.0188646
9 75 0.00459195 0.017634
9 76 0.0044601 0.0172178
9 77 0.00384098 0.0169115
9 78 0.00416939 0.0154443
9 79 0.00444929 0.0143908
9 80 0.00356838 0.0143552
9 81 0.00311115 0.0134196
9 82 0.00388899 0.0116145
9 83 0.00326597 0.0113785
9 84 0.00188833 0.0113781
9 85 0.00225095 0.00961664
9 86 0.00281136 0.00836548
9 87 0.000684091 0.00930806
9 88 -0.00021197 0.00852729
9 89 0.000850452 0.00625403
9 90 -0.000335626 0.00699197
9 91 -0.00389264 0.00834848
9 92 -0.00275843 0.00537869
9 93 -0.00354164 0.00466368
9 94 -0.00792237 0.00788199
9 95 -0.00848527 0.00616987
9 96 -0.00641205 0.00048087
9 97 -0.00437705 0.00298835
9 98 0.0220056 0.00510058
9 99 0.096577 -7.49361e-005
9 100 0.1 0
10 0 0 0
10 1 1.70606e-005 5.90064e-007
10 2 0.000353595 -3.1108e-005
10 3 0.000641754 -8.78716e-005
10 4 0.000835957 -0.000170023
10 5 0.00098188 -0.000275922
10 6 0.00107159 -0.000373543
10 7 0.00112802 -0.000479331
10 8 0.00111789 -0.000561092
10 9 0.00107937 -0.000611419
10 10 0.000995778 -0.000624981
10 11 0.000865748 -0.00060859
10 12 0.000667172 -0.000521578
10 13 0.000435864 -0.000368684
10 14 0.000141787 -0.000154067
10 15 -0.000217172 0.000136762
10 16 -0.00063979 0.000534013
10 17 -0.00109211 0.00101279
10 18 -0.00161002 0.00157584
10 19 -0.00217879 0.00225129
10 20 -0.00277259 0.0030387
10 21 -0.00337023 0.00390067
10 22 -0.0040033 0.0048565
10 23 -0.00463354 0.00592544
10 24 -0.00522222 0.00706276
10 25 -0.00577286 0.0082348
10 26 -0.00630213 0.00947742
10 27 -0.00675618 0.0107739
10 28 -0.0071107 0.0120447
10 29 -0.0073957 0.0132922
10 30 -0.00761052 0.0145588
10 31 -0.00771267 0.0157814
10 32 -0.00770578 0.016892
10 33 -0.00763747 0.0179536
10 34 -0.00749344 0.0189853
10 35 -0.00725076 0.0198927
10 36 -0.00694047 0.0206732
10 37 -0.00661091 0.0214302
10 38 -0.00622161 0.0221161
10 39 -0.0057772 0.0226496
10 40 -0.00532837 0.0231192
10 41 -0.00489195 0.0235968
10 42 -0.00440392 0.0239558
10 43 -0.00391808 0.024202
10 44 -0.00347498 0.0244775
10 45 -0.00303376 0.0247377
10 46 -0.00254879 0.0248465
10 47 -0.0021315 0.0249498
10 48 -0.00175324 0.0251256
10 49 -0.00133405 0.0252009
10 50 -0.000913414 0.0251651
10 51 -0.000607873 0.0252485
10 52 -0.000267781 0.0253317
10 53 0.00013014 0.0252444
10 54 0.000441581 0.0251876
10 55 0.000666853 0.0252831
10 56 0.00103321 0.0252112
10 57 0.0013774 0.0250307
10 58 0.0015654 0.0250428
10 59 0.00180782 0.0250589
10 60 0.00221934 0.0247902
10 61 0.00243538 0.0246423
10 62 0.00256082 0.0246895
10 63 0.00291699 0.0244677
10 64 0.00328419 0.0240762
10 65 0.00332473 0.02405
10 66 0.00352428 0.0239318
10 67 0.0039779 0.0233914
10 68 0.00413255 0.02306
10 69 0.00406449 0.0230616
10 70 0.00445245 0.0225067
10 71 0.00480738 0.0217846
10 72 0.00462928 0.0216492
10 73 0.00463871 0.0213411
10 74 0.00515722 0.0202499
10 75 0.00509988 0.0196996
10 76 0.00466404 0.0196211
10 77 0.00493573 0.0185989
10 78 0.00527344 0.0173105
10 79 0.00456931 0.0172673
10 80 0.00420763 0.016731
10 81 0.00473815 0.0149768
10 82 0.0043972 0.0143011
10 83 0.00311347 0.0146256
10 84 0.00335434 0.0130452
10 85 0.00374238 0.0114265
10 86 0.00212307 0.0120318
10 87 0.000891494 0.0117939
10 88 0.00221162 0.00939261
10 89 0.000972376 0.00942927
10 90 -0.00212742 0.0104961
10 91 -0.00157053 0.00869234
10 92 -0.000501204 0.00725529
10 93 -0.00584138 0.00879818
10 94 -0.00750785 0.0073657
10 95 -0.00354212 0.0059832
10 96 -0.00765334 0.00745922
10 97 -0.00407979 0.0061629
10 98 0.0269173 -0.000512216
10 99 0.0985212 -0.000928169
10 100 0.1 0
11 0 0 0
11 1 2.37616e-005 3.37993e-006
11 2 0.000397272 -3.28799e-006
11 3 0.000714377 -7.15055e-005
11 4 0.00092745 -0.000137856
11 5 0.00108267 -0.000223508
11 6 0.00116406 -0.000308039
11 7 0.00120623 -0.000375179
11 8 0.00117449 -0.000410274
11 9 0.00110225 -0.00043732
11 10 0.000969895 -0.000411864
11 11 0.000788044 -0.000319478
11 12 0.000529456 -0.00017232
11 13 0.000224295 2.50772e-005
11 14 -0.000154831 0.000328787
11 15 -0.00059688 0.000726968
11 16 -0.00111028 0.00119527
11 17 -0.00166712 0.00176314
11 18 -0.00229167 0.0024716
11 19 -0.00295699 0.00327161
11 20 -0.00365357 0.00415194
11 21 -0.00435998 0.00516382
11 22 -0.00508608 0.00629643
11 23 -0.00578907 0.00747454
11 24 -0.00644864 0.00871652
11 25 -0.00705907 0.0100576
11 26 -0.00761812 0.0114224
11 27 -0.00807338 0.0127487
11 28 -0.00841947 0.0140865
11 29 -0.00868515 0.0154296
11 30 -0.00884896 0.0166744
11 31 -0.00887179 0.0178198
11 32 -0.00879442 0.0189334
11 33 -0.00865538 0.0199615
11 34 -0.00840763 0.0208279
11 35 -0.00805711 0.0216115