Title= "LBM Lid Driven Flow"
VARIABLES="X","Y","U","V"
ZONE T="BOX",I=101,J=101,F=POINT
0 0 0 0
0 1 0 0
0 2 0 0
0 3 0 0
0 4 0 0
0 5 0 0
0 6 0 0
0 7 0 0
0 8 0 0
0 9 0 0
0 10 0 0
0 11 0 0
0 12 0 0
0 13 0 0
0 14 0 0
0 15 0 0
0 16 0 0
0 17 0 0
0 18 0 0
0 19 0 0
0 20 0 0
0 21 0 0
0 22 0 0
0 23 0 0
0 24 0 0
0 25 0 0
0 26 0 0
0 27 0 0
0 28 0 0
0 29 0 0
0 30 0 0
0 31 0 0
0 32 0 0
0 33 0 0
0 34 0 0
0 35 0 0
0 36 0 0
0 37 0 0
0 38 0 0
0 39 0 0
0 40 0 0
0 41 0 0
0 42 0 0
0 43 0 0
0 44 0 0
0 45 0 0
0 46 0 0
0 47 0 0
0 48 0 0
0 49 0 0
0 50 0 0
0 51 0 0
0 52 0 0
0 53 0 0
0 54 0 0
0 55 0 0
0 56 0 0
0 57 0 0
0 58 0 0
0 59 0 0
0 60 0 0
0 61 0 0
0 62 0 0
0 63 0 0
0 64 0 0
0 65 0 0
0 66 0 0
0 67 0 0
0 68 0 0
0 69 0 0
0 70 0 0
0 71 0 0
0 72 0 0
0 73 0 0
0 74 0 0
0 75 0 0
0 76 0 0
0 77 0 0
0 78 0 0
0 79 0 0
0 80 0 0
0 81 0 0
0 82 0 0
0 83 0 0
0 84 0 0
0 85 0 0
0 86 0 0
0 87 0 0
0 88 0 0
0 89 0 0
0 90 0 0
0 91 0 0
0 92 0 0
0 93 0 0
0 94 0 0
0 95 0 0
0 96 0 0
0 97 0 0
0 98 0 0
0 99 0 0
0 100 0.1 0
1 0 0 0
1 1 -7.1654e-006 7.7293e-006
1 2 3.39227e-006 5.45304e-005
1 3 -4.03942e-006 2.34324e-005
1 4 2.70997e-007 1.15091e-005
1 5 -5.971e-006 1.06194e-005
1 6 -3.81227e-007 4.90638e-006
1 7 -6.83814e-006 2.26507e-006
1 8 -1.10814e-006 7.9745e-006
1 9 -6.01909e-006 -7.27589e-006
1 10 -2.07301e-006 -1.23918e-005
1 11 -6.42458e-006 -6.66705e-006
1 12 -5.90287e-007 -1.34605e-005
1 13 -5.19802e-006 -3.47432e-005
1 14 -1.06185e-006 -3.01587e-005
1 15 -2.9995e-006 -2.9993e-005
1 16 2.74707e-006 -5.44907e-005
1 17 -1.3902e-006 -6.82778e-005
1 18 5.05638e-006 -5.66455e-005
1 19 4.91497e-006 -7.38862e-005
1 20 1.06093e-005 -0.000102693
1 21 8.01423e-006 -9.39612e-005
1 22 1.79704e-005 -8.57219e-005
1 23 1.76047e-005 -0.000116743
1 24 2.37217e-005 -0.000120424
1 25 2.34855e-005 -8.54155e-005
1 26 3.56272e-005 -9.17233e-005
1 27 3.20231e-005 -0.00010991
1 28 3.97218e-005 -6.37952e-005
1 29 4.06598e-005 -2.33576e-005
1 30 5.10439e-005 -4.45369e-005
1 31 4.23263e-005 -1.37662e-005
1 32 5.32493e-005 6.88551e-005
1 33 5.12416e-005 7.49053e-005
1 34 5.63005e-005 6.07293e-005
1 35 4.41666e-005 0.000154197
1 36 5.89956e-005 0.000213263
1 37 4.84234e-005 0.000164989
1 38 4.93274e-005 0.000199693
1 39 3.826e-005 0.000320089
1 40 5.47225e-005 0.000287675
1 41 3.19368e-005 0.000226531
1 42 3.61265e-005 0.000340504
1 43 2.87091e-005 0.000401352
1 44 4.11263e-005 0.000267141
1 45 8.51423e-006 0.000289188
1 46 2.63698e-005 0.0004423
1 47 1.73662e-005 0.000351922
1 48 2.10081e-005 0.000213965
1 49 -1.06741e-005 0.000385849
1 50 2.54221e-005 0.00043979
1 51 1.22811e-006 0.000204027
1 52 1.66337e-006 0.000233416
1 53 -1.56555e-005 0.000473795
1 54 2.85793e-005 0.000284357
1 55 -2.15471e-005 8.39308e-005
1 56 -4.17413e-006 0.000364279
1 57 -6.36539e-006 0.000432579
1 58 2.51785e-005 3.6274e-005
1 59 -4.26149e-005 0.000134076
1 60 1.36205e-005 0.000496381
1 61 3.84117e-006 0.000187993
1 62 1.25778e-005 -0.000119275
1 63 -4.52253e-005 0.000364879
1 64 5.07017e-005 0.000438778
1 65 -8.19565e-007 -0.000159488
1 66 4.80133e-006 -9.10048e-006
1 67 -1.88466e-005 0.000596539
1 68 8.84326e-005 0.000103059
1 69 -2.1564e-005 -0.000366763
1 70 2.38412e-005 0.000361371
1 71 2.97589e-005 0.000578428
1 72 0.000109245 -0.000391362
1 73 -4.13014e-005 -0.000211542
1 74 8.48904e-005 0.00077693
1 75 8.03592e-005 0.000157312
1 76 0.000111032 -0.000764719
1 77 -3.39046e-005 0.000369724
1 78 0.000190555 0.000897675
1 79 0.000111408 -0.000642566
1 80 0.000109658 -0.000672534
1 81 3.08134e-005 0.00121042
1 82 0.000332626 0.000329174
1 83 0.000110346 -0.00158942
1 84 0.000139206 0.000227388
1 85 0.000196556 0.0017839
1 86 0.000491463 -0.00136433
1 87 7.94206e-005 -0.00207414
1 88 0.000278673 0.002131
1 89 0.000542579 0.000716858
1 90 0.000610629 -0.00446504
1 91 4.3271e-005 -0.000235176
1 92 0.000741779 0.00465948
1 93 0.00123901 -0.00580032
1 94 0.00075706 -0.0110456
1 95 7.44444e-005 0.00679516
1 96 0.00249788 0.00299718
1 97 0.00227559 -0.0232352
1 98 -0.00300116 0.0341696
1 99 0.00731065 0.0123764
1 100 0.1 0
2 0 0 0
2 1 -6.10521e-005 -2.86565e-006
2 2 3.56885e-005 -2.89056e-005
2 3 -1.05885e-005 -2.003e-005
2 4 5.27763e-005 -5.29093e-005
2 5 -1.54762e-005 -0.000108119
2 6 5.75312e-005 -0.000154207
2 7 -5.23131e-006 -0.000220298
2 8 5.4271e-005 -0.000298588
2 9 4.76385e-006 -0.000367348
2 10 5.82851e-005 -0.000438203
2 11 6.20375e-006 -0.000536436
2 12 6.0609e-005 -0.000626708
2 13 1.47613e-005 -0.000703687
2 14 5.75401e-005 -0.000797462
2 15 1.33135e-005 -0.000903162
2 16 5.95146e-005 -0.00097518
2 17 7.80239e-006 -0.00104055
2 18 4.66499e-005 -0.0011207
2 19 -1.49802e-006 -0.00117158
2 20 3.38387e-005 -0.00117049
2 21 -2.78406e-005 -0.00117291
2 22 1.13895e-005 -0.00115801
2 23 -5.33866e-005 -0.00106746
2 24 -2.26879e-005 -0.000934661
2 25 -9.22047e-005 -0.000807632
2 26 -4.91351e-005 -0.000611388
2 27 -0.000135075 -0.000330085
2 28 -8.94457e-005 -4.94531e-005
2 29 -0.00016271 0.00024309
2 30 -0.000112337 0.000639914
2 31 -0.000210859 0.00106614
2 32 -0.000124496 0.0014444
2 33 -0.000208195 0.00187284
2 34 -0.000146309 0.0023851
2 35 -0.000238369 0.00282723
2 36 -0.000100538 0.00321735
2 37 -0.000219544 0.00369551
2 38 -0.000129583 0.00416767
2 39 -0.000201122 0.00449188
2 40 -3.48281e-005 0.00483196
2 41 -0.000212659 0.00525207
2 42 -5.62121e-005 0.00553333
2 43 -0.000123967 0.00568922
2 44 2.59892e-005 0.00596606
2 45 -0.000196467 0.00621685
2 46 6.72881e-005 0.00623789
2 47 -6.49274e-005 0.00629037
2 48 5.30373e-005 0.00649204
2 49 -0.000150869 0.0064759
2 50 0.000207436 0.00630417
2 51 -8.30018e-005 0.00636639
2 52 7.85508e-005 0.00641184
2 53 -5.99324e-005 0.00611004
2 54 0.000292453 0.00593758
2 55 -0.000177857 0.00603236
2 56 0.000176326 0.00579043
2 57 2.49425e-005 0.00535061
2 58 0.000265337 0.00536381
2 59 -0.000260186 0.00533643
2 60 0.000366064 0.00477837
2 61 -5.50831e-006 0.00449535
2 62 0.00017331 0.00468118
2 63 -0.000233542 0.00430036
2 64 0.000553864 0.00365054
2 65 -0.000203866 0.00376492
2 66 0.000155549 0.00384075
2 67 -0.000115056 0.00305545
2 68 0.000614196 0.00273313
2 69 -0.000491835 0.00318511
2 70 0.000312539 0.00278316
2 71 -2.5736e-005 0.00189379
2 72 0.000507233 0.00223593
2 73 -0.000735064 0.00261267
2 74 0.000645688 0.00159432
2 75 -8.95468e-005 0.00115767
2 76 0.00027298 0.00214444
2 77 -0.000820788 0.00187884
2 78 0.0011166 0.000530504
2 79 -0.000429399 0.00109982
2 80 -7.93014e-006 0.00224286
2 81 -0.000607355 0.000907976
2 82 0.00162224 -1.94361e-005
2 83 -0.00124522 0.00186453
2 84 -0.000104246 0.00220172
2 85 0.00013869 -0.000173943
2 86 0.00169989 0.000622878
2 87 -0.0027636 0.00363001
2 88 0.000714046 0.00178473
2 89 0.00160328 -0.000600654
2 90 -0.000335991 0.00406434
2 91 -0.00488025 0.00704106
2 92 0.00466094 0.0015474
2 93 0.00468419 0.00142231
2 94 -0.00837786 0.0137157
2 95 -0.00911781 0.0169714
2 96 0.0155081 0.0127218
2 97 -0.0181429 0.0401065
2 98 -0.0252821 0.035018
2 99 0.0908222 0.000703125
2 100 0.1 0
3 0 0 0
3 1 -2.61129e-005 3.6569e-006
3 2 2.57184e-005 1.1821e-005
3 3 4.42112e-005 -3.80016e-005
3 4 9.74658e-005 -0.000102938
3 5 8.2333e-005 -0.000187905
3 6 0.00012509 -0.000281532
3 7 0.000120861 -0.000398098
3 8 0.000147122 -0.000522953
3 9 0.000133921 -0.000654653
3 10 0.000169861 -0.000793058
3 11 0.000159064 -0.000945458
3 12 0.000173461 -0.0010904
3 13 0.000164233 -0.00123927
3 14 0.000187188 -0.0013925
3 15 0.000155862 -0.00153574
3 16 0.000154405 -0.00165422
3 17 0.000131214 -0.00176699
3 18 0.000118348 -0.00185487
3 19 5.08093e-005 -0.00189487
3 20 2.7878e-005 -0.00189405
3 21 -3.06138e-005 -0.0018614
3 22 -9.13768e-005 -0.00175794
3 23 -0.000189174 -0.00158137
3 24 -0.000226182 -0.00135763
3 25 -0.000323776 -0.00106906
3 26 -0.00041 -0.000682468
3 27 -0.000501987 -0.000237029
3 28 -0.000530027 0.000247708
3 29 -0.000644539 0.000816896
3 30 -0.00070272 0.00146143
3 31 -0.000745091 0.0021106
3 32 -0.000743409 0.00278817
3 33 -0.000841925 0.00354189
3 34 -0.00082146 0.00429545
3 35 -0.000800634 0.00499652
3 36 -0.000769461 0.0057297
3 37 -0.000828237 0.00649196
3 38 -0.000710903 0.00715906
3 39 -0.000660678 0.00776541
3 40 -0.000619938 0.00841524
3 41 -0.000625011 0.00900597
3 42 -0.000431097 0.00944691
3 43 -0.000419228 0.00988653
3 44 -0.000374438 0.0103459
3 45 -0.000313523 0.0106443
3 46 -0.000105567 0.0108366
3 47 -0.000190797 0.0111055
3 48 -9.52252e-005 0.0112934
3 49 1.69162e-005 0.0112807
3 50 0.000143974 0.0113067
3 51 -2.20656e-005 0.0113993
3 52 0.000202983 0.0112668
3 53 0.000271185 0.0110465
3 54 0.000257897 0.0110037
3 55 0.000134966 0.0108578
3 56 0.000494739 0.010445
3 57 0.000355796 0.0102009
3 58 0.000290337 0.0100841
3 59 0.000346935 0.00962792
3 60 0.000679602 0.0091192
3 61 0.000256287 0.00898413
3 62 0.000382429 0.0086524
3 63 0.000569008 0.0079439
3 64 0.00064134 0.00761267
3 65 0.000108147 0.00752232
3 66 0.000613565 0.00682897
3 67 0.000627163 0.00614969
3 68 0.000407179 0.00616239
3 69 0.000105906 0.00584373
3 70 0.000878185 0.0048582
3 71 0.000390741 0.00461629
3 72 0.000182887 0.00482538
3 73 0.000307427 0.00399061
3 74 0.000975622 0.00311918
3 75 -7.12856e-005 0.00357494
3 76 0.000180646 0.00348125
3 77 0.000591416 0.00212039
3 78 0.000793752 0.00201514
3 79 -0.000549803 0.00297194
3 80 0.00048363 0.00191758
3 81 0.000778084 0.000554382
3 82 0.000309229 0.00184516
3 83 -0.000836472 0.00240876
3 84 0.00110573 -2.12851e-005
3 85 0.000591335 -7.42411e-005
3 86 -0.000617652 0.00274831
3 87 -0.000740654 0.00115148
3 88 0.00213463 -0.00209143
3 89 -0.000792635 0.00165116
3 90 -0.00265639 0.00454895
3 91 -0.000118273 -0.00197457
3 92 0.00448849 -0.00292852
3 93 -0.00361715 0.00911851
3 94 -0.0102233 0.00719481
3 95 -0.00410808 -0.00625947
3 96 -0.00674297 0.0139925
3 97 -0.035203 0.0264315
3 98 0.00974077 0.0119157
3 99 0.101536 -0.00010626
3 100 0.1 0
4 0 0 0
4 1 -4.56594e-006 4.49992e-007
4 2 5.15488e-005 -5.63541e-005
4 3 0.000104477 -0.000101917
4 4 0.000161719 -0.000158938
4 5 0.000209973 -0.000274212
4 6 0.000227804 -0.000419197
4 7 0.000261159 -0.000563596
4 8 0.000275355 -0.000704387
4 9 0.000296998 -0.000881231
4 10 0.00030373 -0.00105572
4 11 0.000323031 -0.0012149
4 12 0.000318383 -0.0013825
4 13 0.000322629 -0.00156496
4 14 0.000306134 -0.00170653
4 15 0.000289279 -0.0018257
4 16 0.000245552 -0.00194763
4 17 0.000203441 -0.0020308
4 18 0.000129664 -0.00203684
4 19 5.18525e-005 -0.00201839
4 20 -5.23555e-005 -0.0019657
4 21 -0.000160322 -0.00181031
4 22 -0.00029887 -0.00157284
4 23 -0.000428783 -0.0013116
4 24 -0.000580499 -0.000962397
4 25 -0.000729032 -0.000484535
4 26 -0.00088903 3.20534e-005
4 27 -0.00101821 0.000576906
4 28 -0.00116556 0.00124847
4 29 -0.00129069 0.00200351
4 30 -0.00140018 0.00272735
4 31 -0.00146421 0.00350054
4 32 -0.00155375 0.00439319
4 33 -0.0015954 0.00526396
4 34 -0.00160352 0.00605705
4 35 -0.00157644 0.00693469
4 36 -0.00158854 0.00786122
4 37 -0.00152158 0.00865079
4 38 -0.00143478 0.00938495
4 39 -0.00134482 0.0102264
4 40 -0.00129027 0.0109852
4 41 -0.00113036 0.0115538
4 42 -0.00100636 0.0121645
4 43 -0.000899834 0.0128376
4 44 -0.000793855 0.0132773
4 45 -0.000588855 0.0136044
4 46 -0.000499977 0.0140771
4 47 -0.000391889 0.0144523
4 48 -0.000245653 0.0145304
4 49 -6.68649e-005 0.0147074
4 50 -5.01842e-005 0.0150002
4 51 9.28172e-005 0.0149719
4 52 0.000242631 0.0147988
4 53 0.000325205 0.014929
4 54 0.000308689 0.0149109
4 55 0.000522188 0.0144914
4 56 0.000586628 0.0142957
4 57 0.000565967 0.0143408
4 58 0.00061451 0.0138626
4 59 0.000851933 0.0132809
4 60 0.000735627 0.0132315
4 61 0.000722739 0.0129554
4 62 0.000886952 0.0120645
4 63 0.000996138 0.0116964
4 64 0.000718407 0.0116755
4 65 0.000888396 0.0108423
4 66 0.00105123 0.0099345
4 67 0.000896893 0.00999663
4 68 0.000657748 0.00959251
4 69 0.00107215 0.00832354
4 70 0.0009773 0.00796544
4 71 0.000626406 0.00820809
4 72 0.000681194 0.00707286
4 73 0.00116337 0.00598863
4 74 0.000615125 0.00644633
4 75 0.000376699 0.00621385
4 76 0.000819066 0.00451923
4 77 0.00101082 0.00442689
4 78 6.05076e-005 0.00529934
4 79 0.000362726 0.00400521
4 80 0.000992966 0.00257555
4 81 0.000454783 0.00392164
4 82 -0.000489035 0.00420252
4 83 0.000772562 0.00187824
4 84 0.000929438 0.00197427
4 85 -0.000768395 0.0043939
4 86 -0.000726622 0.00288321
4 87 0.00163367 0.000604943
4 88 -0.000136556 0.00364908
4 89 -0.00298605 0.00549965
4 90 -4.72836e-005 0.00128589
4 91 0.00200957 0.0016415
4 92 -0.00358414 0.00908164
4 93 -0.00519395 0.00750533
4 94 -0.000982418 0.00181005
4 95 -0.0104125 0.011938
4 96 -0.0163633 0.0114749
4 97 -0.00953255 -0.0101556
4 98 0.0102138 -0.0179681
4 99 0.0930333 -0.0011241
4 100 0.1 0
5 0 0 0
5 1 -6.41576e-006 6.45473e-006
5 2 0.000110348 1.179e-005
5 3 0.000190956 -8.75076e-005
5 4 0.000272668 -0.000208957
5 5 0.000347863 -0.000340572
5 6 0.000388525 -0.000480927
5 7 0.000425975 -0.000650986
5 8 0.000454774 -0.000828999
5 9 0.00048776 -0.00101512
5 10 0.000489174 -0.00119387
5 11 0.000504031 -0.00137832
5 12 0.000504539 -0.00155282
5 13 0.000490728 -0.00171133
5 14 0.000445016 -0.00184345
5 15 0.000410201 -0.00195701
5 16 0.000336821 -0.00202679
5 17 0.000234366 -0.00204472
5 18 0.000109319 -0.00201246
5 19 -1.50688e-005 -0.00192523
5 20 -0.000196822 -0.00175416
5 21 -0.000393936 -0.00150696
5 22 -0.000592837 -0.00119353
5 23 -0.000799894 -0.000793161
5 24 -0.00105642 -0.000293003
5 25 -0.00128421 0.000275785
5 26 -0.0014937 0.000909157
5 27 -0.00171543 0.00163722
5 28 -0.00194943 0.00243956
5 29 -0.00210314 0.00327124
5 30 -0.00224077 0.00414949
5 31 -0.00238973 0.00510063
5 32 -0.00249942 0.006064
5 33 -0.00250612 0.00700601
5 34 -0.00253013 0.0079741
5 35 -0.00255144 0.00896819
5 36 -0.00249337 0.00989957
5 37 -0.00236041 0.0107834
5 38 -0.00229159 0.01168
5 39 -0.00218327 0.0125375
5 40 -0.00198812 0.0132815
5 41 -0.00179051 0.0139976
5 42 -0.00167885 0.0147062
5 43 -0.00146677 0.0153065
5 44 -0.00121587 0.0158008
5 45 -0.00104293 0.0163132
5 46 -0.000910973 0.0167617
5 47 -0.000629151 0.0170627
5 48 -0.000424801 0.0173323
5 49 -0.000316529 0.0176319
5 50 -0.000140329 0.0177753
5 51 0.000150174 0.0178143
5 52 0.000224496 0.0179178
5 53 0.000315984 0.0179683
5 54 0.000556903 0.017802
5 55 0.000751134 0.0176807
5 56 0.000692828 0.0176323
5 57 0.00087457 0.0173695
5 58 0.00111389 0.0169751
5 59 0.0011145 0.0167971
5 60 0.00104262 0.0165153
5 61 0.00136938 0.0159311
5 62 0.00143524 0.0154846
5 63 0.00126655 0.0152492
5 64 0.00136217 0.0146083
5 65 0.00171394 0.01386
5 66 0.00144866 0.0135312
5 67 0.00132653 0.0130774
5 68 0.00165487 0.0120777
5 69 0.00174543 0.0114864
5 70 0.00121138 0.0112637
5 71 0.0014377 0.0103827
5 72 0.00177407 0.00930492
5 73 0.00137681 0.00916327
5 74 0.000951484 0.00876943
5 75 0.00162656 0.0074514
5 76 0.00150573 0.0068191
5 77 0.000758525 0.00710629
5 78 0.000932919 0.00612688
5 79 0.00172006 0.00476501
5 80 0.000758699 0.00509552
5 81 0.00022439 0.00528743
5 82 0.00123287 0.00346501
5 83 0.00137396 0.00292413
5 84 -0.000399888 0.0043694
5 85 1.34007e-005 0.00347149
5 86 0.00157833 0.00109896
5 87 1.536e-005 0.00268127
5 88 -0.00197314 0.0045775
5 89 0.00011497 0.00151112
5 90 0.00110194 0.000202827
5 91 -0.00316187 0.00511008
5 92 -0.00488776 0.00501218
5 93 -0.000449701 0.00122932
5 94 -0.0050838 0.0067798
5 95 -0.0152585 0.00615343
5 96 -0.000649708 -0.00334963
5 97 -0.00940642 0.000821859
5 98 0.00318535 0.00793494
5 99 0.0872195 0.00126951
5 100 0.1 0
6 0 0 0
6 1 -5.97701e-006 4.00638e-007
6 2 0.000163328 -4.86064e-005
6 3 0.000291414 -0.000116169
6 4 0.000404206 -0.000227366
6 5 0.000480452 -0.000376756
6 6 0.000553402 -0.000528523
6 7 0.000598897 -0.000709911
6 8 0.000631019 -0.000892912
6 9 0.000654121 -0.00106323
6 10 0.000669455 -0.00122976
6 11 0.000664991 -0.00140995
6 12 0.000644122 -0.00155143
6 13 0.000606729 -0.00165749
6 14 0.000545646 -0.00175176
6 15 0.000451936 -0.0018116
6 16 0.000329997 -0.0017876
6 17 0.000181312 -0.00171784
6 18 -1.60824e-006 -0.00160871
6 19 -0.000223066 -0.00140349
6 20 -0.000466718 -0.00109617
6 21 -0.000731169 -0.000746771
6 22 -0.00102192 -0.000318603
6 23 -0.00133432 0.000240575
6 24 -0.00163812 0.000870618
6 25 -0.00194187 0.00153108
6 26 -0.00224658 0.00230242
6 27 -0.00253918 0.00318084
6 28 -0.00278338 0.0040586
6 29 -0.00300648 0.00496305
6 30 -0.00320407 0.00598067
6 31 -0.0033611 0.00701927
6 32 -0.00344162 0.00798638
6 33 -0.0034991 0.00899494
6 34 -0.00352155 0.0100721
6 35 -0.00349053 0.0110574
6 36 -0.00338311 0.0119525
6 37 -0.00328139 0.012916
6 38 -0.00314186 0.0138548
6 39 -0.0029508 0.0146214
6 40 -0.00271861 0.0153583
6 41 -0.00252874 0.0161656
6 42 -0.00228275 0.0168237
6 43 -0.00200998 0.0173236
6 44 -0.00175089 0.0179004
6 45 -0.00153704 0.0184687
6 46 -0.00123684 0.0187906
6 47 -0.000973258 0.019091
6 48 -0.000755174 0.0195196
6 49 -0.000531375 0.0197704
6 50 -0.000225208 0.0198057
6 51 -4.68032e-005 0.0200168
6 52 0.000134119 0.0202373
6 53 0.000380763 0.0201281
6 54 0.000624231 0.020026
6 55 0.000694693 0.0201817
6 56 0.000904251 0.0200563
6 57 0.00114518 0.0196657
6 58 0.00125141 0.0195909
6 59 0.00127934 0.019556
6 60 0.00156794 0.0189938
6 61 0.00169502 0.0185547
6 62 0.00165805 0.0185237
6 63 0.00176547 0.0180467
6 64 0.00207108 0.0171848
6 65 0.00195874 0.0169548
6 66 0.00190145 0.0167171
6 67 0.00215112 0.0156779
6 68 0.00228448 0.0149309
6 69 0.00192664 0.0149214
6 70 0.00205263 0.0140827
6 71 0.00233329 0.012786
6 72 0.00209862 0.0125981
6 73 0.00169744 0.0123921
6 74 0.00214305 0.0108294
6 75 0.00216004 0.0100234
6 76 0.00154291 0.0103912
6 77 0.00145695 0.00936495
6 78 0.00213609 0.00764223
6 79 0.00151735 0.00803934
6 80 0.000819422 0.00822863
6 81 0.00138941 0.0061875
6 82 0.00186854 0.00550941
6 83 0.000314321 0.00705319
6 84 0.000226794 0.00593125
6 85 0.00148142 0.00370159
6 86 0.000780307 0.00532839
6 87 -0.00161345 0.00677038
6 88 0.000104067 0.00366941
6 89 0.000981385 0.00329411
6 90 -0.0026417 0.00764415
6 91 -0.00399381 0.00706501
6 92 1.26247e-006 0.00321536
6 93 -0.00499104 0.007342
6 94 -0.00987445 0.0109172
6 95 -0.00579552 0.00664999
6 96 -0.000278555 0.00934935
6 97 -0.015122 0.0127839
6 98 0.0102514 0.00209973
6 99 0.0938169 -0.00050001
6 100 0.1 0
7 0 0 0
7 1 9.78794e-006 5.69414e-006
7 2 0.000221029 -4.58889e-007
7 3 0.000400832 -0.00010877
7 4 0.000546632 -0.000232284
7 5 0.000640385 -0.000381689
7 6 0.000723501 -0.000540408
7 7 0.000781269 -0.000709705
7 8 0.000814532 -0.00087356
7 9 0.000827833 -0.00104764
7 10 0.000837826 -0.00120391
7 11 0.000816206 -0.00133575
7 12 0.000764131 -0.00144081
7 13 0.000694514 -0.00152601
7 14 0.000597527 -0.00155483
7 15 0.00044574 -0.00152693
7 16 0.000262456 -0.00144987
7 17 5.36061e-005 -0.00131091
7 18 -0.000204976 -0.00107608
7 19 -0.000515903 -0.000766674
7 20 -0.000836399 -0.000389591
7 21 -0.00118345 8.66134e-005
7 22 -0.00157292 0.000670217
7 23 -0.00197448 0.00131888
7 24 -0.00234676 0.00204234
7 25 -0.00273624 0.00287391
7 26 -0.00312837 0.003781
7 27 -0.00347101 0.00471897
7 28 -0.00375234 0.00571929
7 29 -0.00404234 0.00679546
7 30 -0.00427782 0.00787999
7 31 -0.00441794 0.00894999
7 32 -0.00450162 0.0100527
7 33 -0.00459054 0.0111685
7 34 -0.0045754 0.0122192
7 35 -0.00447406 0.0132277
7 36 -0.00435723 0.0142387
7 37 -0.00423843 0.0151934
7 38 -0.0039946 0.016042
7 39 -0.00373179 0.0168597
7 40 -0.00349404 0.0176508
7 41 -0.00322908 0.0183316
7 42 -0.00285764 0.018922
7 43 -0.00256247 0.0195154
7 44 -0.00228174 0.0200374
7 45 -0.00194013 0.0204318
7 46 -0.00156118 0.0208028
7 47 -0.00132534 0.0211858
7 48 -0.00102093 0.0214338
7 49 -0.000666336 0.0216003
7 50 -0.000376216 0.02182
7 51 -0.000204012 0.0219899
7 52 0.000142994 0.0219854
7 53 0.000430972 0.0220171
7 54 0.000599092 0.0221097
7 55 0.000779803 0.0220287
7 56 0.00115412 0.0218347
7 57 0.00128789 0.0218085
7 58 0.00139577 0.0217084
7 59 0.001656 0.0213521
7 60 0.00195839 0.0210813
7 61 0.00190665 0.0209828
7 62 0.00208886 0.0205626
7 63 0.00239343 0.0200057
7 64 0.00248034 0.0197607
7 65 0.00233718 0.0194362
7 66 0.00269929 0.0186366
7 67 0.00285616 0.0180806
7 68 0.00267012 0.0178291
7 69 0.00264702 0.017068
7 70 0.00312202 0.0160548
7 71 0.00286599 0.0157104
7 72 0.00258258 0.0152209
7 73 0.00286593 0.0139841
7 74 0.00313144 0.013161
7 75 0.00236724 0.0130364
7 76 0.00241379 0.0120135
7 77 0.00289912 0.0106311
7 78 0.00251389 0.0104213
7 79 0.00158604 0.0102062
7 80 0.00237003 0.00856967
7 81 0.00245635 0.0077061
7 82 0.00126574 0.00822421
7 83 0.000926792 0.00739462
7 84 0.00233027 0.00550589
7 85 0.00105614 0.00593817
7 86 -0.000444575 0.00670425
7 87 0.000476904 0.00478686
7 88 0.00144596 0.00372185
7 89 -0.00190746 0.00600778
7 90 -0.00275717 0.00552646
7 91 -0.000960756 0.00276712
7 92 -0.00249374 0.00526293
7 93 -0.0086314 0.00752238
7 94 -0.00492838 0.00314773
7 95 -0.00803448 0.00330639
7 96 -0.0125338 0.00983053
7 97 -0.0102972 0.0135914
7 98 0.0203451 0.00850319
7 99 0.0964299 -0.000158704
7 100 0.1 0
8 0 0 0
8 1 9.4086e-006 1.61853e-006
8 2 0.000283551 -4.86028e-005
8 3 0.000501762 -0.000125322
8 4 0.000667545 -0.000218177
8 5 0.000797907 -0.000362711
8 6 0.000878378 -0.000521512
8 7 0.000934067 -0.00067522
8 8 0.00096864 -0.000813936
8 9 0.000977634 -0.000963603
8 10 0.000950888 -0.00108287
8 11 0.000906542 -0.00116429
8 12 0.00083018 -0.0012193
8 13 0.000710863 -0.00124448
8 14 0.000545246 -0.00119068
8 15 0.00035 -0.00107699
8 16 0.000103175 -0.000915332
8 17 -0.000199366 -0.000669886
8 18 -0.000542619 -0.000315294
8 19 -0.000913271 0.00010264
8 20 -0.0013336 0.00059626
8 21 -0.00179058 0.00121259
8 22 -0.00225181 0.0019263
8 23 -0.00271691 0.00268802
8 24 -0.00320067 0.00354581
8 25 -0.0036712 0.00451981
8 26 -0.00409278 0.00553031
8 27 -0.00448584 0.00656217
8 28 -0.00485062 0.00768601
8 29 -0.00515012 0.00885821
8 30 -0.0053624 0.00997957
8 31 -0.00552633 0.011103
8 32 -0.00563176 0.0122813
8 33 -0.00565148 0.0134029
8 34 -0.00558205 0.0144161
8 35 -0.00547958 0.0154396
8 36 -0.00531841 0.0164544
8 37 -0.00508373 0.0173239
8 38 -0.00479759 0.018104
8 39 -0.00451653 0.0189188
8 40 -0.00418136 0.0196404
8 41 -0.00380719 0.0201954
8 42 -0.00343798 0.0207498
8 43 -0.00309312 0.0213256
8 44 -0.00268671 0.0217227
8 45 -0.00229795 0.0220304
8 46 -0.00195274 0.022426
8 47 -0.00160446 0.0227487
8 48 -0.00119897 0.0228691
8 49 -0.000886032 0.0230574
8 50 -0.000592543 0.0233174
8 51 -0.000245223 0.0233685
8 52 9.94605e-005 0.0233294
8 53 0.000304368 0.0234887
8 54 0.000594227 0.0235461
8 55 0.000930586 0.0233528
8 56 0.00115633 0.0233004
8 57 0.00130047 0.0233925
8 58 0.0016461 0.0231454
8 59 0.00190016 0.0228352
8 60 0.0019933 0.022839
8 61 0.00218343 0.0226834
8 62 0.00255965 0.0221296
8 63 0.00262345 0.0218895
8 64 0.00266782 0.0218238
8 65 0.00297483 0.0212266
8 66 0.00323142 0.020563
8 67 0.00306482 0.0204739
8 68 0.00321717 0.0200219
8 69 0.00356127 0.0190085
8 70 0.00350509 0.0185614
8 71 0.00322769 0.0184166
8 72 0.00359604 0.0173022
8 73 0.00372373 0.0162827
8 74 0.00328934 0.0162287
8 75 0.00316184 0.0155473
8 76 0.00367055 0.0139314
8 77 0.00327036 0.0135643
8 78 0.0026605 0.0135866
8 79 0.00294229 0.011999
8 80 0.00326924 0.0107256
8 81 0.00214537 0.0113587
8 82 0.00185297 0.0106237
8 83 0.00258145 0.00850117
8 84 0.00210774 0.0087594
8 85 0.000345789 0.00976943
8 86 0.00112164 0.00757406
8 87 0.00165174 0.00636903
8 88 -0.000643881 0.00864025
8 89 -0.00204486 0.00847007
8 90 0.000403201 0.00549253
8 91 -0.00229266 0.00708015
8 92 -0.00605887 0.0093842
8 93 -0.00446438 0.0065371
8 94 -0.0028422 0.00572634
8 95 -0.0124788 0.00900279
8 96 -0.011841 0.00577995
8 97 -0.0031924 9.71143e-005
8 98 0.0225021 -0.00529464
8 99 0.0966772 -0.00102478
8 100 0.1 0
9 0 0 0
9 1 1.51943e-005 4.65503e-006
9 2 0.000342656 1.82087e-006
9 3 0.000607907 -9.06242e-005
9 4 0.000792394 -0.000210329
9 5 0.000944254 -0.000340305
9 6 0.00102867 -0.000460302
9 7 0.00108349 -0.000601376
9 8 0.00110291 -0.000730962
9 9 0.00109905 -0.00083393
9 10 0.0010422 -0.000906429
9 11 0.000963418 -0.000964783
9 12 0.000841384 -0.000964537
9 13 0.000671439 -0.000901538
9 14 0.000440978 -0.000789704
9 15 0.000178606 -0.000620096
9 16 -0.000148565 -0.000345708
9 17 -0.000534011 1.03884e-005
9 18 -0.000966213 0.000432462
9 19 -0.00142815 0.000957903
9 20 -0.00194917 0.00160769
9 21 -0.00249748 0.00232956
9 22 -0.00304868 0.00312854
9 23 -0.00360477 0.004051
9 24 -0.00417688 0.00506641
9 25 -0.0047107 0.00611471
9 26 -0.00518803 0.0072305
9 27 -0.00563723 0.00843534
9 28 -0.006041 0.00965076
9 29 -0.00633768 0.0108428
9 30 -0.00654737 0.0120658
9 31 -0.0067166 0.0132983
9 32 -0.00679 0.0144492
9 33 -0.0067383 0.0155405
9 34 -0.00662935 0.0166243
9 35 -0.00648836 0.0176355
9 36 -0.00623575 0.0185187
9 37 -0.00590855 0.0193567
9 38 -0.00558464 0.0201588
9 39 -0.00523132 0.0208354
9 40 -0.004785 0.0214086
9 41 -0.00435265 0.0219813
9 42 -0.00395514 0.0224807
9 43 -0.00350884 0.0228468
9 44 -0.00302412 0.0231885
9 45 -0.00262851 0.0235495
9 46 -0.00223218 0.0237833
9 47 -0.00177698 0.0239368
9 48 -0.0013687 0.0241504
9 49 -0.00105505 0.024334
9 50 -0.00066182 0.024356
9 51 -0.000261824 0.0244129
9 52 2.31601e-005 0.024549
9 53 0.00030184 0.0245446
9 54 0.000698026 0.0244286
9 55 0.000982875 0.024476
9 56 0.00118141 0.024494
9 57 0.0014995 0.0242848
9 58 0.00185094 0.0241323
9 59 0.00199482 0.0241702
9 60 0.00220931 0.0239583
9 61 0.00257712 0.0235902
9 62 0.00278749 0.0234878
9 63 0.0028446 0.0233843
9 64 0.00316778 0.0228541
9 65 0.00347592 0.0224662
9 66 0.00347717 0.0223823
9 67 0.00357954 0.0219157
9 68 0.00399058 0.0211342
9 69 0.00404235 0.0208773
9 70 0.00389001 0.0205837
9 71 0.00416945 0.0196234
9 72 0.00446287 0.0188627
9 73 0.00410713 0.0187204
9 74 0.00403071 0.0178904
9 75 0.004472 0.0166278
9 76 0.00429124 0.0162145
9 77 0.00363416 0.0158953
9 78 0.00395678 0.0144183
9 79 0.00421095 0.013406
9 80 0.00329372 0.0134224
9 81 0.00284505 0.012518
9 82 0.00363634 0.0107773
9 83 0.00298411 0.0106448
9 84 0.00160092 0.0107272
9 85 0.00199263 0.00903634
9 86 0.00253305 0.00789458
9 87 0.000359922 0.00894965
9 88 -0.000530209 0.00823725
9 89 0.000522938 0.00603562
9 90 -0.000728707 0.00687822
9 91 -0.00428412 0.00828984
9 92 -0.00308767 0.0053389
9 93 -0.00386439 0.00467824
9 94 -0.00815317 0.00793311
9 95 -0.00857683 0.00620281
9 96 -0.00637377 0.000473832
9 97 -0.00428179 0.00297494
9 98 0.0220571 0.00510205
9 99 0.0965829 -7.46461e-005
9 100 0.1 0
10 0 0 0
10 1 1.92297e-005 6.12983e-007
10 2 0.000386528 -3.33009e-005
10 3 0.000699609 -9.16088e-005
10 4 0.000904248 -0.000177345
10 5 0.00105705 -0.000289696
10 6 0.00114646 -0.000395149
10 7 0.00120478 -0.000509904
10 8 0.00119455 -0.000601807
10 9 0.00116058 -0.000664234
10 10 0.00108175 -0.000692159
10 11 0.000959063 -0.000692492
10 12 0.000767182 -0.000624472
10 13 0.000544137 -0.000492733
10 14 0.000255765 -0.000300951
10 15 -9.94501e-005 -3.367e-005
10 16 -0.000521876 0.000340117
10 17 -0.000977586 0.000796275
10 18 -0.00150519 0.00133844
10 19 -0.00208854 0.00199555
10 20 -0.00270167 0.00276739
10 21 -0.00332363 0.00361682
10 22 -0.00398587 0.0045632
10 23 -0.00464687 0.00562541
10 24 -0.00526704 0.00675827
10 25 -0.00584978 0.00792806
10 26 -0.0064095 0.00917004
10 27 -0.00688886 0.0104666
10 28 -0.00726379 0.0117377
10 29 -0.00756506 0.0129861
10 30 -0.0077888 0.0142535
10 31 -0.00789093 0.0154751
10 32 -0.00787826 0.0165836
10 33 -0.00779922 0.0176432
10 34 -0.00763666 0.0186714
10 35 -0.00736967 0.0195729
10 36 -0.00703342 0.0203474
10 37 -0.00667558 0.0210992
10 38 -0.00625422 0.0217784
10 39 -0.00577816 0.0223047
10 40 -0.00530038 0.02277
10 41 -0.004835 0.0232443
10 42 -0.00431817 0.0235995
10 43 -0.00380825 0.0238452
10 44 -0.00334475 0.0241242
10 45 -0.00288274 0.0243875
10 46 -0.00237945 0.0245008
10 47 -0.00194985 0.0246142
10 48 -0.00156001 0.0248008
10 49 -0.00112738 0.0248851
10 50 -0.000698252 0.0248623
10 51 -0.000388211 0.0249617
10 52 -3.9442e-005 0.0250562
10 53 0.000367306 0.0249794
10 54 0.000680321 0.0249378
10 55 0.000909066 0.025044
10 56 0.0012846 0.0249751
10 57 0.001632 0.0248005
10 58 0.00181783 0.0248181
10 59 0.00206609 0.0248274
10 60 0.00248272 0.0245476
10 61 0.00269297 0.0243928
10 62 0.00281426 0.0244227
10 63 0.0031732 0.0241696
10 64 0.00353142 0.0237504
10 65 0.00355477 0.0236958
10 66 0.0037447 0.0235298
10 67 0.0041851 0.0229365
10 68 0.00430896 0.0225626
10 69 0.00421215 0.0225101
10 70 0.0045767 0.0218839
10 71 0.00489162 0.0211042
10 72 0.00466491 0.0209204
10 73 0.0046383 0.0205435
10 74 0.00511436 0.0193878
10 75 0.00499736 0.0188061
10 76 0.00451724 0.0186921
10 77 0.00475528 0.0176213
10 78 0.00504192 0.016326
10 79 0.00429143 0.0163069
10 80 0.00391534 0.0157717
10 81 0.00442344 0.0140377
10 82 0.00404604 0.0134436
10 83 0.00275289 0.0138422
10 84 0.00300299 0.0123121
10 85 0.00336863 0.0107941
10 86 0.00172161 0.0115275
10 87 0.000497153 0.0113648
10 88 0.00181483 0.00904028
10 89 0.000520811 0.00919994
10 90 -0.00258084 0.0103446
10 91 -0.00197965 0.00856876
10 92 -0.000914368 0.00720534
10 93 -0.00620233 0.00880887
10 94 -0.0077232 0.00737578
10 95 -0.00361278 0.00598275
10 96 -0.00758555 0.00744746
10 97 -0.00400048 0.00614949
10 98 0.0269476 -0.000522601
10 99 0.0985278 -0.000928521
10 100 0.1 0
11 0 0 0
11 1 2.62653e-005 3.68122e-006
11 2 0.000432092 -1.6457e-006
11 3 0.000775935 -7.30498e-005
11 4 0.00100144 -0.000144162
11 5 0.00116568 -0.000236065
11 6 0.00124785 -0.00032819
11 7 0.00129314 -0.000404341
11 8 0.00126339 -0.000450596
11 9 0.00119794 -0.000491004
11 10 0.00107221 -0.000480638
11 11 0.000900139 -0.000405453
11 12 0.000650654 -0.000278163
11 13 0.000355119 -0.00010202
11 14 -1.75327e-005 0.000179857
11 15 -0.000455323 0.000555464
11 16 -0.000969248 0.00100118
11 17 -0.00153131 0.00154826
11 18 -0.00216728 0.00223743
11 19 -0.00284913 0.00301904
11 20 -0.003568 0.00388301
11 21 -0.00430144 0.00488106
11 22 -0.00505825 0.00600056
11 23 -0.00579385 0.00716621
11 24 -0.00648749 0.00839792
11 25 -0.00713129 0.00973007
11 26 -0.00772064 0.0110852
11 27 -0.00820234 0.0124026
11 28 -0.00857042 0.0137337
11 29 -0.00885146 0.0150696
11 30 -0.00902272 0.0163053
11 31 -0.009046 0.0174427
11 32 -0.00896278 0.0185493
11 33 -0.00881085 0.019568
11 34 -0.00854325 0.0204238