Title= "LBM Lid Driven Flow"
VARIABLES="X","Y","U","V"
ZONE T="BOX",I=101,J=101,F=POINT
0 0 0 0
0 1 0 0
0 2 0 0
0 3 0 0
0 4 0 0
0 5 0 0
0 6 0 0
0 7 0 0
0 8 0 0
0 9 0 0
0 10 0 0
0 11 0 0
0 12 0 0
0 13 0 0
0 14 0 0
0 15 0 0
0 16 0 0
0 17 0 0
0 18 0 0
0 19 0 0
0 20 0 0
0 21 0 0
0 22 0 0
0 23 0 0
0 24 0 0
0 25 0 0
0 26 0 0
0 27 0 0
0 28 0 0
0 29 0 0
0 30 0 0
0 31 0 0
0 32 0 0
0 33 0 0
0 34 0 0
0 35 0 0
0 36 0 0
0 37 0 0
0 38 0 0
0 39 0 0
0 40 0 0
0 41 0 0
0 42 0 0
0 43 0 0
0 44 0 0
0 45 0 0
0 46 0 0
0 47 0 0
0 48 0 0
0 49 0 0
0 50 0 0
0 51 0 0
0 52 0 0
0 53 0 0
0 54 0 0
0 55 0 0
0 56 0 0
0 57 0 0
0 58 0 0
0 59 0 0
0 60 0 0
0 61 0 0
0 62 0 0
0 63 0 0
0 64 0 0
0 65 0 0
0 66 0 0
0 67 0 0
0 68 0 0
0 69 0 0
0 70 0 0
0 71 0 0
0 72 0 0
0 73 0 0
0 74 0 0
0 75 0 0
0 76 0 0
0 77 0 0
0 78 0 0
0 79 0 0
0 80 0 0
0 81 0 0
0 82 0 0
0 83 0 0
0 84 0 0
0 85 0 0
0 86 0 0
0 87 0 0
0 88 0 0
0 89 0 0
0 90 0 0
0 91 0 0
0 92 0 0
0 93 0 0
0 94 0 0
0 95 0 0
0 96 0 0
0 97 0 0
0 98 0 0
0 99 0 0
0 100 0.1 0
1 0 0 0
1 1 -1.02732e-005 9.00797e-006
1 2 1.40492e-006 7.03752e-005
1 3 -6.71564e-006 3.42637e-005
1 4 -2.74765e-006 1.62917e-005
1 5 -9.79509e-006 1.42403e-005
1 6 -4.24896e-006 8.78916e-006
1 7 -1.13614e-005 5.78846e-006
1 8 -5.88052e-006 1.22356e-005
1 9 -1.12779e-005 -4.35528e-006
1 10 -7.91728e-006 -9.74288e-006
1 11 -1.27298e-005 -3.714e-006
1 12 -7.39731e-006 -1.19315e-005
1 13 -1.24572e-005 -3.68883e-005
1 14 -9.0836e-006 -3.41277e-005
1 15 -1.11341e-005 -3.68479e-005
1 16 -5.84853e-006 -6.82454e-005
1 17 -1.01434e-005 -8.90755e-005
1 18 -3.96267e-006 -8.26065e-005
1 19 -3.4674e-006 -0.000108763
1 20 2.28718e-006 -0.000149412
1 21 4.63756e-007 -0.000149287
1 22 1.13046e-005 -0.000149448
1 23 1.25318e-005 -0.000192376
1 24 1.96286e-005 -0.000205506
1 25 2.14797e-005 -0.000175565
1 26 3.54433e-005 -0.00018783
1 27 3.3974e-005 -0.000209752
1 28 4.34334e-005 -0.000161992
1 29 4.69585e-005 -0.000118752
1 30 5.88202e-005 -0.0001346
1 31 5.19778e-005 -9.19039e-005
1 32 6.44728e-005 1.15657e-006
1 33 6.38445e-005 1.64376e-005
1 34 6.89153e-005 2.094e-005
1 35 5.79308e-005 0.000133187
1 36 7.2972e-005 0.000197809
1 37 6.15817e-005 0.000161302
1 38 6.14487e-005 0.000220021
1 39 5.09786e-005 0.000346484
1 40 6.56036e-005 0.000308188
1 41 4.07885e-005 0.000263971
1 42 4.44957e-005 0.000392279
1 43 3.68871e-005 0.000435989
1 44 4.58339e-005 0.0002989
1 45 1.24664e-005 0.000343334
1 46 3.07677e-005 0.000485471
1 47 1.99706e-005 0.000369537
1 48 2.06172e-005 0.000249524
1 49 -9.17817e-006 0.000432292
1 50 2.64203e-005 0.000451394
1 51 -5.21943e-007 0.000211262
1 52 -1.82264e-007 0.000269964
1 53 -1.48453e-005 0.000491545
1 54 2.65944e-005 0.000272653
1 55 -2.43007e-005 9.62761e-005
1 56 -4.67913e-006 0.00038477
1 57 -6.67492e-006 0.000421266
1 58 2.22894e-005 2.76041e-005
1 59 -4.28032e-005 0.000142998
1 60 1.38701e-005 0.000487854
1 61 2.49917e-006 0.000178127
1 62 1.28589e-005 -0.000119253
1 63 -4.29077e-005 0.000345783
1 64 4.97075e-005 0.000428068
1 65 2.56311e-007 -0.00014155
1 66 9.82763e-006 -3.16448e-005
1 67 -1.80786e-005 0.000560181
1 68 8.78009e-005 0.000139053
1 69 -1.46709e-005 -0.000345926
1 70 2.92134e-005 0.000295705
1 71 2.67122e-005 0.000586153
1 72 0.000114178 -0.000307413
1 73 -3.14597e-005 -0.000244461
1 74 8.46485e-005 0.000712706
1 75 7.77201e-005 0.000253256
1 76 0.000123334 -0.000705133
1 77 -2.94377e-005 0.000274752
1 78 0.000185719 0.000912782
1 79 0.000115677 -0.000507287
1 80 0.000123046 -0.000708001
1 81 2.53598e-005 0.00113406
1 82 0.000333726 0.000426067
1 83 0.000118743 -0.00151917
1 84 0.000146252 0.00014783
1 85 0.000189502 0.00179234
1 86 0.000504335 -0.00129732
1 87 7.6232e-005 -0.00203342
1 88 0.000287435 0.00215331
1 89 0.00054374 0.00069032
1 90 0.000623812 -0.00452539
1 91 2.95655e-005 -0.00012502
1 92 0.000756942 0.00484657
1 93 0.00121013 -0.00550119
1 94 0.000762104 -0.0107496
1 95 3.91141e-005 0.00695715
1 96 0.00247226 0.00321702
1 97 0.00229376 -0.0235936
1 98 -0.00304608 0.0335715
1 99 0.00728445 0.0123536
1 100 0.1 0
2 0 0 0
2 1 -6.60181e-005 -4.27138e-006
2 2 3.34064e-005 -4.36282e-005
2 3 -1.02553e-005 -2.9703e-005
2 4 6.13915e-005 -6.86437e-005
2 5 -1.09676e-005 -0.00014321
2 6 6.48295e-005 -0.000210307
2 7 9.55467e-007 -0.000299378
2 8 6.39908e-005 -0.000405046
2 9 1.53186e-005 -0.000505094
2 10 6.99864e-005 -0.000611527
2 11 2.16645e-005 -0.00075269
2 12 7.90566e-005 -0.000892955
2 13 3.69348e-005 -0.0010265
2 14 8.05835e-005 -0.00118517
2 15 4.30433e-005 -0.00136425
2 16 9.05894e-005 -0.0015156
2 17 4.20464e-005 -0.00166565
2 18 8.0331e-005 -0.00183551
2 19 3.71433e-005 -0.00197668
2 20 6.853e-005 -0.00206312
2 21 6.25387e-006 -0.00214924
2 22 4.02741e-005 -0.00220964
2 23 -2.60667e-005 -0.00218029
2 24 -5.70279e-006 -0.00209459
2 25 -8.02153e-005 -0.00199769
2 26 -4.8612e-005 -0.00180884
2 27 -0.000140658 -0.00151363
2 28 -0.000106591 -0.00120074
2 29 -0.000187314 -0.000851498
2 30 -0.000150026 -0.000375237
2 31 -0.000249442 0.00014217
2 32 -0.000170629 0.000625723
2 33 -0.000261191 0.00117945
2 34 -0.000204495 0.00182048
2 35 -0.000285473 0.00238549
2 36 -0.000152605 0.00290694
2 37 -0.000274479 0.00351904
2 38 -0.000176114 0.00410269
2 39 -0.000229768 0.00452654
2 40 -7.29314e-005 0.00497009
2 41 -0.000245232 0.00547188
2 42 -6.96319e-005 0.0058032
2 43 -0.00012803 0.00600992
2 44 5.80355e-006 0.0063316
2 45 -0.000196024 0.0065892
2 46 8.34814e-005 0.00660435
2 47 -5.91392e-005 0.00666569
2 48 4.97833e-005 0.00685184
2 49 -0.000120879 0.00678897
2 50 0.000229867 0.00658968
2 51 -7.85726e-005 0.00663214
2 52 9.56859e-005 0.00661919
2 53 -2.01581e-005 0.00625866
2 54 0.000301651 0.00606038
2 55 -0.000165845 0.00611174
2 56 0.000205858 0.00580044
2 57 4.8241e-005 0.00532093
2 58 0.000270412 0.00530626
2 59 -0.000235138 0.00522688
2 60 0.000377506 0.00462692
2 61 2.12067e-006 0.00432044
2 62 0.000195314 0.00447311
2 63 -0.000227525 0.00407595
2 64 0.000533842 0.00341983
2 65 -0.000177554 0.00350239
2 66 0.000173673 0.00358096
2 67 -0.000164515 0.00284537
2 68 0.000606826 0.0025046
2 69 -0.000442072 0.00293121
2 70 0.00027187 0.00262791
2 71 -0.000100377 0.00179958
2 72 0.000561743 0.00207194
2 73 -0.00072299 0.00250822
2 74 0.000544471 0.001658
2 75 -0.000111429 0.00119203
2 76 0.000360386 0.00211983
2 77 -0.000901252 0.0020439
2 78 0.00103857 0.000799563
2 79 -0.000378696 0.0012449
2 80 2.07118e-005 0.00246358
2 81 -0.000745889 0.00136681
2 82 0.00165216 0.000398049
2 83 -0.00122709 0.00220036
2 84 -0.000163155 0.00277036
2 85 4.40463e-005 0.000572859
2 86 0.00178812 0.00128361
2 87 -0.00291512 0.00433363
2 88 0.000715176 0.00276994
2 89 0.00160738 0.000531507
2 90 -0.000261053 0.00506371
2 91 -0.0052449 0.0081321
2 92 0.00452357 0.0032172
2 93 0.00461676 0.00324683
2 94 -0.00785614 0.014868
2 95 -0.00951786 0.0180685
2 96 0.0160204 0.0137721
2 97 -0.0174105 0.0403598
2 98 -0.025568 0.0349241
2 99 0.0904053 0.000729504
2 100 0.1 0
3 0 0 0
3 1 -3.30258e-005 5.18798e-006
3 2 2.60546e-005 2.32609e-005
3 3 5.34257e-005 -4.81572e-005
3 4 0.000122928 -0.000140004
3 5 0.000113354 -0.000255301
3 6 0.000162857 -0.000385826
3 7 0.000163686 -0.000548116
3 8 0.00019636 -0.000722863
3 9 0.000191204 -0.000910001
3 10 0.000237573 -0.0011127
3 11 0.000238913 -0.00133996
3 12 0.000265754 -0.00156822
3 13 0.00027201 -0.00181186
3 14 0.000308355 -0.00207323
3 15 0.000290222 -0.00233404
3 16 0.000299906 -0.00257654
3 17 0.000286709 -0.00282122
3 18 0.0002759 -0.00304472
3 19 0.000208087 -0.00321582
3 20 0.000179581 -0.00333941
3 21 0.000108534 -0.00342181
3 22 2.5611e-005 -0.00341583
3 23 -9.43623e-005 -0.00331434
3 24 -0.000160732 -0.00314251
3 25 -0.000295123 -0.00287775
3 26 -0.000420016 -0.00248481
3 27 -0.000544828 -0.0020044
3 28 -0.000613387 -0.00145373
3 29 -0.000768167 -0.00078852
3 30 -0.000856355 -2.65266e-005
3 31 -0.00092049 0.00076203
3 32 -0.000948878 0.00160358
3 33 -0.00106537 0.00253191
3 34 -0.00104532 0.00346005
3 35 -0.00102285 0.00434576
3 36 -0.000998741 0.00526935
3 37 -0.00104158 0.00620373
3 38 -0.000896894 0.0070265
3 39 -0.000829771 0.00778965
3 40 -0.00077478 0.00857792
3 41 -0.000739596 0.00926874
3 42 -0.000514295 0.00979699
3 43 -0.000486794 0.0103198
3 44 -0.000415702 0.0108218
3 45 -0.000313416 0.0111303
3 46 -9.30167e-005 0.0113406
3 47 -0.000168715 0.0116098
3 48 -4.37183e-005 0.0117495
3 49 9.0226e-005 0.0116904
3 50 0.000208414 0.0116874
3 51 5.47492e-005 0.0117096
3 52 0.000301908 0.0114802
3 53 0.000365634 0.0112005
3 54 0.000340714 0.0110929
3 55 0.000235587 0.0108339
3 56 0.000595236 0.010326
3 57 0.000441044 0.0100236
3 58 0.000377067 0.0098151
3 59 0.000434148 0.00925005
3 60 0.000746928 0.00867312
3 61 0.000326861 0.00847972
3 62 0.00044498 0.00806975
3 63 0.000596458 0.00729726
3 64 0.000672636 0.00692143
3 65 0.000152634 0.00680428
3 66 0.000596157 0.00610111
3 67 0.00058856 0.00539757
3 68 0.000424021 0.00539911
3 69 7.6561e-005 0.00514781
3 70 0.000762433 0.00421384
3 71 0.000345253 0.00395355
3 72 0.000172906 0.00423953
3 73 0.00016867 0.0035734
3 74 0.000841821 0.00272646
3 75 -8.37918e-005 0.00318456
3 76 9.01296e-005 0.00330441
3 77 0.000401539 0.00210424
3 78 0.000738315 0.00193699
3 79 -0.000593781 0.00301352
3 80 0.00029524 0.00225732
3 81 0.000640162 0.000917652
3 82 0.000291423 0.00216052
3 83 -0.00102038 0.00304527
3 84 0.000883022 0.000850256
3 85 0.000503184 0.000703709
3 86 -0.000767811 0.00369259
3 87 -0.00106375 0.00256382
3 88 0.00199108 -0.000633197
3 89 -0.000809069 0.00298003
3 90 -0.00291904 0.00632913
3 91 -0.000744374 0.000382296
3 92 0.00405478 -0.000741369
3 93 -0.0033468 0.0110665
3 94 -0.00989921 0.00965599
3 95 -0.00394795 -0.00389811
3 96 -0.00543599 0.0153319
3 97 -0.0342536 0.0274998
3 98 0.0101202 0.0123906
3 99 0.100943 -8.45337e-005
3 100 0.1 0
4 0 0 0
4 1 -8.26548e-006 -8.22008e-007
4 2 6.42666e-005 -8.09486e-005
4 3 0.000137944 -0.00014191
4 4 0.000220898 -0.000228232
4 5 0.000286919 -0.000393221
4 6 0.0003158 -0.000597069
4 7 0.000360472 -0.000805131
4 8 0.000385721 -0.00101365
4 9 0.000424432 -0.00126831
4 10 0.000449767 -0.00152887
4 11 0.000490963 -0.0017835
4 12 0.000508893 -0.00205768
4 13 0.000538951 -0.00235787
4 14 0.000545783 -0.00262509
4 15 0.000548831 -0.00287862
4 16 0.000521208 -0.00314123
4 17 0.000489728 -0.00336475
4 18 0.000416666 -0.00350793
4 19 0.000329866 -0.00362193
4 20 0.000207957 -0.00368883
4 21 7.05801e-005 -0.00363417
4 22 -0.000107653 -0.0034803
4 23 -0.000285589 -0.00328097
4 24 -0.000493039 -0.00296413
4 25 -0.000703731 -0.00249273
4 26 -0.000926164 -0.00196081
4 27 -0.00112036 -0.00137023
4 28 -0.00133326 -0.000623263
4 29 -0.00151602 0.000223669
4 30 -0.00167451 0.00105802
4 31 -0.00178747 0.00197039
4 32 -0.00191476 0.00301562
4 33 -0.00197426 0.00403757
4 34 -0.00199387 0.00499538
4 35 -0.00197735 0.00605396
4 36 -0.00197855 0.00714828
4 37 -0.00188314 0.00809108
4 38 -0.00177272 0.00898774
4 39 -0.00165562 0.00998396
4 40 -0.00155072 0.0108627
4 41 -0.00134052 0.0115407
4 42 -0.00118123 0.0122627
4 43 -0.00102825 0.0130128
4 44 -0.000861759 0.0134961
4 45 -0.000619186 0.0138725
4 46 -0.000502583 0.0143794
4 47 -0.000345823 0.0147418
4 48 -0.00015832 0.0148009
4 49 2.91695e-005 0.0149719
4 50 6.84175e-005 0.0152188
4 51 0.000250382 0.0151131
4 52 0.000407908 0.0148886
4 53 0.000483819 0.0149609
4 54 0.000492881 0.0148326
4 55 0.000720957 0.0143128
4 56 0.000768256 0.0140472
4 57 0.000747317 0.0139813
4 58 0.000809881 0.0133671
4 59 0.00103 0.0126947
4 60 0.000897572 0.0125498
4 61 0.000882226 0.0121374
4 62 0.00102167 0.0111415
4 63 0.00110812 0.0106984
4 64 0.000823435 0.0105717
4 65 0.000946928 0.00965537
4 66 0.00106621 0.00870584
4 67 0.000925447 0.00870778
4 68 0.000643425 0.00826974
4 69 0.000969105 0.00703232
4 70 0.000889069 0.0066671
4 71 0.000561559 0.00691616
4 72 0.000498773 0.005902
4 73 0.000951835 0.00490459
4 74 0.000490217 0.00537039
4 75 0.000193068 0.00530593
4 76 0.00051775 0.00382129
4 77 0.000821171 0.00375755
4 78 -9.64541e-005 0.00474319
4 79 5.54635e-005 0.00376775
4 80 0.00068871 0.00244903
4 81 0.000308384 0.00381241
4 82 -0.000772936 0.00441832
4 83 0.000386136 0.00237953
4 84 0.000654746 0.00243258
4 85 -0.00102351 0.00506957
4 86 -0.00120763 0.00400621
4 87 0.00123936 0.00178541
4 88 -0.000399814 0.00479228
4 89 -0.00332672 0.00718903
4 90 -0.000645668 0.00335578
4 91 0.00146143 0.00343193
4 92 -0.00392521 0.0106968
4 93 -0.00509334 0.00958156
4 94 -0.000715874 0.00363162
4 95 -0.00960739 0.0130699
4 96 -0.015247 0.0128671
4 97 -0.00794247 -0.00886796
4 98 0.0112017 -0.0174303
4 99 0.0929403 -0.0011057
4 100 0.1 0
5 0 0 0
5 1 -8.49047e-006 8.38258e-006
5 2 0.000139309 1.90153e-005
5 3 0.000259791 -0.000123049
5 4 0.000378703 -0.000297815
5 5 0.000481284 -0.000486918
5 6 0.000539914 -0.000689538
5 7 0.00059701 -0.000932744
5 8 0.00064498 -0.00119232
5 9 0.000703573 -0.0014686
5 10 0.000731669 -0.00174403
5 11 0.000781301 -0.00203559
5 12 0.000816109 -0.00232879
5 13 0.000836753 -0.00261571
5 14 0.000822618 -0.00288308
5 15 0.000817156 -0.00313921
5 16 0.000761476 -0.00335596
5 17 0.000666472 -0.00351917
5 18 0.000538827 -0.00362724
5 19 0.000397258 -0.0036732
5 20 0.000179745 -0.0036231
5 21 -6.41127e-005 -0.00348009
5 22 -0.000320958 -0.00325261
5 23 -0.000602439 -0.00291732
5 24 -0.000942577 -0.00245984
5 25 -0.00125433 -0.0019108
5 26 -0.00155448 -0.00127188
5 27 -0.00187259 -0.000513002
5 28 -0.0021928 0.000340176
5 29 -0.00242417 0.00124479
5 30 -0.00264044 0.00222228
5 31 -0.0028567 0.00328954
5 32 -0.00300787 0.00437694
5 33 -0.0030472 0.0054598
5 34 -0.0031002 0.00658548
5 35 -0.00312545 0.00773404
5 36 -0.00304418 0.00881305
5 37 -0.00288995 0.0098527
5 38 -0.0027927 0.0109032
5 39 -0.00262772 0.0118911
5 40 -0.00236793 0.0127535
5 41 -0.00212057 0.0135901
5 42 -0.00194506 0.0143971
5 43 -0.001653 0.0150651
5 44 -0.00134112 0.0156258
5 45 -0.00111902 0.0161992
5 46 -0.000917602 0.0166708
5 47 -0.000574154 0.0169787
5 48 -0.000337766 0.0172678
5 49 -0.000189112 0.017562
5 50 4.11831e-005 0.0176612
5 51 0.000357311 0.0176698
5 52 0.000443081 0.0177478
5 53 0.000569697 0.0177241
5 54 0.00083815 0.0174708
5 55 0.00103101 0.0172938
5 56 0.000980461 0.0171608
5 57 0.00118482 0.0167673
5 58 0.00142116 0.0162675
5 59 0.0014089 0.0159974
5 60 0.00133639 0.0155719
5 61 0.00165394 0.0148391
5 62 0.00169141 0.014281
5 63 0.00150063 0.0139185
5 64 0.00156213 0.0131287
5 65 0.00186788 0.0122624
5 66 0.00156598 0.0118315
5 67 0.00139996 0.0112817
5 68 0.00164906 0.0102106
5 69 0.00169462 0.00956052
5 70 0.00113239 0.0093049
5 71 0.00127518 0.00845575
5 72 0.00153334 0.0074054
5 73 0.00114827 0.00728411
5 74 0.000677708 0.00701052
5 75 0.00124957 0.00585347
5 76 0.0011367 0.00529039
5 77 0.000431597 0.00572216
5 78 0.000498408 0.00502055
5 79 0.00125154 0.00382524
5 80 0.000364809 0.0042442
5 81 -0.00021266 0.00475089
5 82 0.000669906 0.00323652
5 83 0.000898899 0.00277455
5 84 -0.000878278 0.00441996
5 85 -0.000608172 0.00394606
5 86 0.000914824 0.00174546
5 87 -0.000465566 0.00339039
5 88 -0.00252107 0.00563056
5 89 -0.000617359 0.00288024
5 90 0.000386727 0.00161749
5 91 -0.00351545 0.00661447
5 92 -0.00515372 0.00644193
5 93 -0.000550206 0.00244379
5 94 -0.00432421 0.00804577
5 95 -0.0141329 0.00722502
5 96 0.000799943 -0.00348504
5 97 -0.0072646 0.000377794
5 98 0.0039816 0.00782901
5 99 0.0876901 0.00119616
5 100 0.1 0
6 0 0 0
6 1 -4.41051e-006 -8.06735e-007
6 2 0.000213855 -7.70518e-005
6 3 0.000404 -0.000171615
6 4 0.000565379 -0.000326346
6 5 0.000678626 -0.000541451
6 6 0.000777264 -0.00076766
6 7 0.000850032 -0.00103068
6 8 0.000907355 -0.00129982
6 9 0.000964241 -0.0015639
6 10 0.00101551 -0.00183396
6 11 0.00105492 -0.00212769
6 12 0.00107642 -0.00238918
6 13 0.00108257 -0.00262381
6 14 0.00105871 -0.00285546
6 15 0.000996691 -0.00305527
6 16 0.00089304 -0.00317093
6 17 0.000749991 -0.00324194
6 18 0.000555328 -0.00326928
6 19 0.000305934 -0.00318885
6 20 1.60042e-005 -0.00299719
6 21 -0.000310826 -0.00275386
6 22 -0.000680902 -0.00241388
6 23 -0.00108373 -0.00192488
6 24 -0.00148718 -0.001353
6 25 -0.00189911 -0.000732024
6 26 -0.00231775 2.37048e-005
6 27 -0.00271915 0.000901515
6 28 -0.00306823 0.00179291
6 29 -0.0033963 0.00273746
6 30 -0.00368804 0.00381549
6 31 -0.00391547 0.00492023
6 32 -0.00405637 0.00596968
6 33 -0.00416774 0.00708668
6 34 -0.0042161 0.00827528
6 35 -0.00418156 0.00936494
6 36 -0.00406679 0.0103802
6 37 -0.00394629 0.0114746
6 38 -0.00375575 0.0125233
6 39 -0.00350031 0.0133906
6 40 -0.00321293 0.0142418
6 41 -0.00295309 0.0151492
6 42 -0.0026167 0.0158767
6 43 -0.00226699 0.0164521
6 44 -0.00194496 0.0171083
6 45 -0.00164771 0.0177206
6 46 -0.00126611 0.0180729
6 47 -0.0009525 0.0184248
6 48 -0.00068278 0.0188843
6 49 -0.000385375 0.019129
6 50 -3.42547e-005 0.019176
6 51 0.00016597 0.0194086
6 52 0.000394927 0.0196018
6 53 0.000693729 0.0194539
6 54 0.000946231 0.0193457
6 55 0.00103461 0.0194649
6 56 0.0012892 0.0192511
6 57 0.00154888 0.0187978
6 58 0.00164631 0.01867
6 59 0.00169503 0.0185155
6 60 0.00199678 0.0178182
6 61 0.00210596 0.0172875
6 62 0.00205212 0.0171276
6 63 0.00214572 0.0164671
6 64 0.00240745 0.0154622
6 65 0.00225759 0.0151123
6 66 0.00215005 0.0146961
6 67 0.00231407 0.0134941
6 68 0.00237982 0.0126508
6 69 0.00197712 0.0125297
6 70 0.00198465 0.0115716
6 71 0.00215428 0.0102367
6 72 0.00189521 0.0100354
6 73 0.00141892 0.00981318
6 74 0.00171136 0.00830633
6 75 0.00170282 0.00759822
6 76 0.00109605 0.00805355
6 77 0.00088461 0.00719232
6 78 0.0014829 0.00566827
6 79 0.00093868 0.00622642
6 80 0.000184018 0.00664884
6 81 0.000630795 0.00490188
6 82 0.00114485 0.00440742
6 83 -0.000369463 0.00618722
6 84 -0.000591908 0.00543589
6 85 0.000633782 0.00344064
6 86 -2.03655e-005 0.00518339
6 87 -0.00240762 0.00698108
6 88 -0.000725706 0.00424291
6 89 0.000151391 0.00395495
6 90 -0.00342269 0.00831291
6 91 -0.00436416 0.00793241
6 92 -0.000238431 0.0041741
6 93 -0.0049514 0.00814474
6 94 -0.00906336 0.0116293
6 95 -0.004 0.0072149
6 96 0.00215015 0.00926617
6 97 -0.0134427 0.0124488
6 98 0.0108896 0.00192486
6 99 0.0940731 -0.000550376
6 100 0.1 0
7 0 0 0
7 1 1.40528e-005 7.53786e-006
7 2 0.000294655 5.17161e-006
7 3 0.000558314 -0.000150238
7 4 0.000763733 -0.000331401
7 5 0.000907667 -0.000544372
7 6 0.00102366 -0.000772789
7 7 0.00111621 -0.00102239
7 8 0.00118092 -0.00127369
7 9 0.00123801 -0.00154337
7 10 0.00129342 -0.00180334
7 11 0.0013236 -0.00204748
7 12 0.00132197 -0.00227289
7 13 0.00130592 -0.00248658
7 14 0.00125183 -0.00265083
7 15 0.00113303 -0.00276255
7 16 0.000969998 -0.00282721
7 17 0.000766818 -0.00282994
7 18 0.000489687 -0.00273505
7 19 0.000142663 -0.00256129
7 20 -0.000230737 -0.00231348
7 21 -0.000652081 -0.00195819
7 22 -0.00113596 -0.0014875
7 23 -0.00163994 -0.000941975
7 24 -0.00212716 -0.000307747
7 25 -0.00264567 0.000449501
7 26 -0.00316766 0.00129393
7 27 -0.00363528 0.00218605
7 28 -0.00404799 0.00316474
7 29 -0.00446417 0.00423761
7 30 -0.00480425 0.00533062
7 31 -0.00503556 0.00643231
7 32 -0.00520661 0.00759315
7 33 -0.00535553 0.00877549
7 34 -0.00536605 0.0098967
7 35 -0.00527805 0.0109951
7 36 -0.00516429 0.0121077
7 37 -0.00501104 0.0131536
7 38 -0.00470961 0.0140898
7 39 -0.00439228 0.0150061
7 40 -0.00408747 0.0158877
7 41 -0.00372653 0.0166381
7 42 -0.00326729 0.0172996
7 43 -0.00289764 0.0179696
7 44 -0.00252494 0.0185453
7 45 -0.00208686 0.0189808
7 46 -0.00164351 0.0194093
7 47 -0.00134257 0.0198429
7 48 -0.000955599 0.020113
7 49 -0.000541269 0.0203127
7 50 -0.000216471 0.0205836
7 51 1.50948e-005 0.0207729
7 52 0.000422067 0.0207703
7 53 0.000737088 0.0208353
7 54 0.000935704 0.0209488
7 55 0.00117455 0.0208389
7 56 0.00158414 0.0206272
7 57 0.00173321 0.0206033
7 58 0.00187505 0.0204485
7 59 0.00217563 0.0200049
7 60 0.00248615 0.0196781
7 61 0.00243563 0.0194975
7 62 0.00262614 0.0189289
7 63 0.00292706 0.0182376
7 64 0.00297963 0.0178704
7 65 0.00279249 0.0173677
7 66 0.00310484 0.0163775
7 67 0.00319794 0.0156693
7 68 0.00291951 0.0152448
7 69 0.00279513 0.0143015
7 70 0.00316598 0.0131539
7 71 0.00280211 0.0126921
7 72 0.00239486 0.0120914
7 73 0.00255591 0.0108114
7 74 0.00270861 0.00997659
7 75 0.00185077 0.00985626
7 76 0.00179248 0.00891485
7 77 0.00218477 0.00766288
7 78 0.00173083 0.00757131
7 79 0.000756459 0.00754966
7 80 0.00145919 0.00616222
7 81 0.00150339 0.00551118
7 82 0.000279692 0.00627505
7 83 -8.39945e-005 0.00576545
7 84 0.00124698 0.00412884
7 85 -3.50733e-005 0.00481978
7 86 -0.00151985 0.00591249
7 87 -0.000578989 0.00422561
7 88 0.000319342 0.00336327
7 89 -0.00289779 0.00597165
7 90 -0.00354348 0.00559203
7 91 -0.00152819 0.00285294
7 92 -0.00285755 0.00558023
7 93 -0.00845944 0.00795082
7 94 -0.00420424 0.00338458
7 95 -0.00599047 0.00371859
7 96 -0.0100435 0.0107022
7 97 -0.00830924 0.0142775
7 98 0.0213096 0.00852485
7 99 0.0963303 -0.000177687
7 100 0.1 0
8 0 0 0
8 1 1.71865e-005 1.49067e-007
8 2 0.000378742 -7.53693e-005
8 3 0.000702161 -0.000175192
8 4 0.00093956 -0.000307851
8 5 0.0011333 -0.000515499
8 6 0.00125161 -0.000746643
8 7 0.00135045 -0.000978289
8 8 0.00142385 -0.00120143
8 9 0.00148449 -0.00144461
8 10 0.00150929 -0.0016638
8 11 0.00152654 -0.00185298
8 12 0.00150896 -0.00202624
8 13 0.00144812 -0.00217637
8 14 0.00133039 -0.0022514
8 15 0.00117423 -0.00227334
8 16 0.000948041 -0.00225334
8 17 0.000648511 -0.00214829
8 18 0.000287862 -0.00193436
8 19 -0.000120346 -0.00166079
8 20 -0.000602135 -0.00130979
8 21 -0.00113845 -0.0008302
8 22 -0.00169511 -0.000253533
8 23 -0.00227364 0.000373484
8 24 -0.00288668 0.00110752
8 25 -0.00349144 0.00196631
8 26 -0.00405299 0.00286756
8 27 -0.00459578 0.00380847
8 28 -0.00510959 0.00486287
8 29 -0.00554228 0.00597716
8 30 -0.00588066 0.00705815
8 31 -0.00616735 0.00817311
8 32 -0.0063693 0.00936146
8 33 -0.00645053 0.0104971
8 34 -0.00643047 0.0115451
8 35 -0.0063607 0.0126294
8 36 -0.00619075 0.0137013
8 37 -0.00591911 0.0146216
8 38 -0.00559443 0.0154719
8 39 -0.00525418 0.0163613
8 40 -0.00482891 0.0171344
8 41 -0.00436631 0.0177426
8 42 -0.00391989 0.018368
8 43 -0.00347766 0.0189965
8 44 -0.0029686 0.0194291
8 45 -0.00250531 0.0197968
8 46 -0.00209081 0.0202559
8 47 -0.00165189 0.0206131
8 48 -0.00117771 0.0207815
8 49 -0.000824996 0.0210479
8 50 -0.000471181 0.0213596
8 51 -5.09102e-005 0.0214462
8 52 0.000326235 0.0214826
8 53 0.000563642 0.0217147
8 54 0.000923541 0.0217955
8 55 0.00131491 0.021642
8 56 0.00155979 0.0216578
8 57 0.00175719 0.0217632
8 58 0.00217294 0.0214918
8 59 0.00245656 0.0211958
8 60 0.00257041 0.0211907
8 61 0.002814 0.0209458
8 62 0.00321628 0.0203057
8 63 0.00327259 0.0200046
8 64 0.00331481 0.0198023
8 65 0.00360901 0.019017
8 66 0.0038127 0.0182091
8 67 0.00358862 0.0179633
8 68 0.00365775 0.0172726
8 69 0.00388479 0.0160475
8 70 0.00371636 0.0154507
8 71 0.00332 0.0151102
8 72 0.00350706 0.0137847
8 73 0.00347971 0.012667
8 74 0.00293023 0.0125457
8 75 0.0026366 0.0117574
8 76 0.00295693 0.0101273
8 77 0.00247222 0.00986372
8 78 0.0017625 0.00995484
8 79 0.00189744 0.00845817
8 80 0.00212978 0.00740753
8 81 0.000981631 0.0082896
8 82 0.00059832 0.00774393
8 83 0.00127621 0.00588869
8 84 0.000747791 0.00648473
8 85 -0.00101619 0.00775922
8 86 -0.000218224 0.00579675
8 87 0.000315337 0.00494529
8 88 -0.00204329 0.00750157
8 89 -0.00311793 0.00745538
8 90 -0.000532044 0.00468787
8 91 -0.00317014 0.006586
8 92 -0.00641033 0.00898894
8 93 -0.00411791 0.00611354
8 94 -0.00228405 0.00531536
8 95 -0.0110993 0.00907956
8 96 -0.00979192 0.00638929
8 97 -0.000684732 0.000709987
8 98 0.0239186 -0.00499599
8 99 0.0965952 -0.00101745
8 100 0.1 0
9 0 0 0
9 1 2.60412e-005 5.97704e-006
9 2 0.000454195 1.00165e-005
9 3 0.000846434 -0.000119539
9 4 0.0011154 -0.00028751
9 5 0.00134218 -0.000470794
9 6 0.00147118 -0.000651169
9 7 0.00157919 -0.000863924
9 8 0.00164452 -0.00107373
9 9 0.00170001 -0.00126404
9 10 0.00170248 -0.00143202
9 11 0.00169566 -0.00159453
9 12 0.00164057 -0.00170683
9 13 0.00153567 -0.00176433
9 14 0.00136028 -0.00178184
9 15 0.00114449 -0.00174807
9 16 0.000841913 -0.00161596
9 17 0.000462559 -0.00140929
9 18 1.76725e-005 -0.00114349
9 19 -0.00047871 -0.000778403
9 20 -0.0010605 -0.000295442
9 21 -0.00168641 0.000252531
9 22 -0.00233313 0.000875435
9 23 -0.00300755 0.0016231
9 24 -0.00371374 0.00246201
9 25 -0.00438912 0.00333808
9 26 -0.00502422 0.00429803
9 27 -0.005642 0.00536332
9 28 -0.00620781 0.00645075
9 29 -0.00666211 0.00754017
9 30 -0.00703142 0.00869553
9 31 -0.00734151 0.00988038
9 32 -0.00752286 0.0109976
9 33 -0.00756083 0.0120862
9 34 -0.00752432 0.0131937
9 35 -0.00741467 0.0142303
9 36 -0.00715551 0.0151435
9 37 -0.00680955 0.0160319
9 38 -0.00644674 0.0168867
9 39 -0.00601759 0.0176013
9 40 -0.00548534 0.0182173
9 41 -0.00497508 0.0188448
9 42 -0.00448301 0.0193847
9 43 -0.00392923 0.0197817
9 44 -0.00336198 0.0201736
9 45 -0.00289228 0.02059
9 46 -0.00240484 0.0208607
9 47 -0.00187521 0.0210647
9 48 -0.00142397 0.0213583
9 49 -0.0010493 0.0216088
9 50 -0.000587235 0.0216872
9 51 -0.000151623 0.0218383
9 52 0.000167012 0.022078
9 53 0.000515998 0.0221408
9 54 0.000966113 0.0221039
9 55 0.00128311 0.0222658
9 56 0.00154219 0.0223594
9 57 0.00194216 0.0221886
9 58 0.00234227 0.0221086
9 59 0.00253595 0.0222093
9 60 0.00282329 0.0219841
9 61 0.00325829 0.0215986
9 62 0.00350091 0.0215006
9 63 0.00359023 0.02133
9 64 0.00394384 0.0206744
9 65 0.00426465 0.0201923
9 66 0.00423083 0.0199808
9 67 0.00428349 0.0193021
9 68 0.00463892 0.0183221
9 69 0.0046027 0.0178901
9 70 0.00430014 0.0173476
9 71 0.00443864 0.0161365
9 72 0.00458619 0.0151968
9 73 0.00403344 0.0148577
9 74 0.00374586 0.013811
9 75 0.00402405 0.0124384
9 76 0.00364083 0.0119676
9 77 0.00277768 0.0115711
9 78 0.00295654 0.0100946
9 79 0.00307351 0.00919921
9 80 0.00196406 0.0093378
9 81 0.00144006 0.00856222
9 82 0.00217409 0.00703472
9 83 0.0013833 0.00719695
9 84 -8.00126e-005 0.00754194
9 85 0.000411798 0.00606974
9 86 0.000871224 0.0052448
9 87 -0.00136572 0.00669096
9 88 -0.00207061 0.00617068
9 89 -0.000778107 0.00417119
9 90 -0.0020724 0.0054505
9 91 -0.00528022 0.007103
9 92 -0.0035614 0.00419026
9 93 -0.00378248 0.00395522
9 94 -0.00769281 0.00763093
9 95 -0.00750923 0.00579441
9 96 -0.00441473 -2.23859e-006
9 97 -0.00194647 0.00296536
9 98 0.0235922 0.00524532
9 99 0.0968433 -0.000105362
9 100 0.1 0
10 0 0 0
10 1 3.08987e-005 -1.34502e-006
10 2 0.00051113 -5.42454e-005
10 3 0.00096893 -0.000122772
10 4 0.00126869 -0.000233975
10 5 0.00150826 -0.000391884
10 6 0.00165192 -0.000555091
10 7 0.0017718 -0.000735286
10 8 0.00181291 -0.000898828
10 9 0.00184749 -0.00104001
10 10 0.00183748 -0.00115753
10 11 0.00179362 -0.00125611
10 12 0.00167591 -0.00129336
10 13 0.00152905 -0.00127604
10 14 0.00130418 -0.00121128
10 15 0.00100046 -0.00107871
10 16 0.000612383 -0.00084822
10 17 0.000174832 -0.000549093
10 18 -0.000359539 -0.000177779
10 19 -0.000970235 0.000299577
10 20 -0.00162973 0.000877816
10 21 -0.0023212 0.00151819
10 22 -0.00307909 0.00224757
10 23 -0.00385238 0.0030887
10 24 -0.00460319 0.00399513
10 25 -0.00534191 0.00494414
10 26 -0.00607563 0.00598137
10 27 -0.00673218 0.00708811
10 28 -0.00729206 0.0081897
10 29 -0.00778863 0.00930397
10 30 -0.00819521 0.0104689
10 31 -0.00845146 0.011608
10 32 -0.00857886 0.0126629
10 33 -0.00862239 0.0137055
10 34 -0.00853586 0.0147305
10 35 -0.00830287 0.0156314
10 36 -0.00798491 0.0164256
10 37 -0.00761592 0.0172125
10 38 -0.00713818 0.0179134
10 39 -0.00659119 0.0184584
10 40 -0.00604515 0.0189603
10 41 -0.00548786 0.0194658
10 42 -0.00486436 0.0198345
10 43 -0.0042705 0.0201112
10 44 -0.0037325 0.0204377
10 45 -0.00317754 0.0207318
10 46 -0.00259911 0.0208838
10 47 -0.00212787 0.0210746
10 48 -0.0016849 0.021336
10 49 -0.00118458 0.0214833
10 50 -0.000725273 0.0215655
10 51 -0.000392174 0.0217929
10 52 1.81035e-005 0.0219832
10 53 0.000483067 0.0220168
10 54 0.000818109 0.0221314
10 55 0.00110452 0.0223637
10 56 0.00157214 0.0223841
10 57 0.00198152 0.0223396
10 58 0.00221659 0.0224876
10 59 0.00256955 0.0225533
10 60 0.00308366 0.0223215
10 61 0.00335061 0.0222468
10 62 0.00353996 0.0222919
10 63 0.0039958 0.0219829
10 64 0.00439788 0.0215294
10 65 0.00443874 0.0214267
10 66 0.00465042 0.0211128
10 67 0.00508994 0.0203458
10 68 0.00515 0.0198274
10 69 0.00498179 0.0195701
10 70 0.00524003 0.0186634
10 71 0.00540635 0.0176472
10 72 0.0050047 0.0172487
10 73 0.00479423 0.0165832
10 74 0.00503075 0.0151552
10 75 0.00468018 0.0144205
10 76 0.00398134 0.0141382
10 77 0.00398462 0.0128638
10 78 0.00401458 0.0115201
10 79 0.00307145 0.0115623
10 80 0.00252539 0.0109914
10 81 0.00286959 0.00930321
10 82 0.00230769 0.00898177
10 83 0.000927338 0.00958334
10 84 0.00115013 0.00814018
10 85 0.00144088 0.00696598
10 86 -0.000337943 0.00812747
10 87 -0.00137377 0.00810803
10 88 5.73985e-005 0.00600475
10 89 -0.00131776 0.00669225
10 90 -0.00415538 0.00814076
10 91 -0.00295884 0.00647545
10 92 -0.00188078 0.0054912
10 93 -0.0066947 0.00762908
10 94 -0.00741067 0.00657144
10 95 -0.00242878 0.00535051
10 96 -0.00584775 0.00701711
10 97 -0.00204836 0.00599256
10 98 0.0284283 -0.000634339
10 99 0.0988224 -0.000966548
10 100 0.1 0
11 0 0 0
11 1 3.88665e-005 4.102e-006
11 2 0.000564315 1.00069e-005
11 3 0.00106547 -8.06073e-005
11 4 0.00139786 -0.000180244
11 5 0.00166242 -0.000305446
11 6 0.00180821 -0.000440673
11 7 0.00192295 -0.000569741
11 8 0.00195316 -0.000679894
11 9 0.00196602 -0.000792749
11 10 0.00191772 -0.000863441
11 11 0.00183323 -0.000877429
11 12 0.00166867 -0.000851907
11 13 0.00146066 -0.000788288
11 14 0.00116265 -0.000630545
11 15 0.000788642 -0.000393452
11 16 0.000323945 -0.000104762
11 17 -0.000204557 0.000269382
11 18 -0.000830733 0.000766166
11 19 -0.00152212 0.00133156
11 20 -0.00227076 0.00195786
11 21 -0.00306029 0.00270317
11 22 -0.00390102 0.00355279
11 23 -0.00474325 0.00443658
11 24 -0.00557368 0.00539053
11 25 -0.00638574 0.00645725
11 26 -0.00716252 0.00755817
11 27 -0.00784853 0.00864778
11 28 -0.00844162 0.00979407
11 29 -0.00894809 0.0109797
11 30 -0.0093271 0.0120919
11 31 -0.00954501 0.0131484
11 32 -0.00963848 0.014216
11 33 -0.00962023 0.0152109
11 34 -0.00944057 0.0160541